# vtk DataFile Version 4.0
hesp visualization file
ASCII
DATASET UNSTRUCTURED_GRID
POINTS 32 double
1.322609 1.122609 4.000000
1.322732 2.244949 4.000000
1.322732 3.367362 4.000000
1.322609 4.489702 4.000000
2.444949 1.122732 4.000000
2.444955 2.244955 4.000000
2.444955 3.367355 4.000000
2.444949 4.489578 4.000000
3.567362 1.122732 4.000000
3.567355 2.244955 4.000000
3.567355 3.367355 4.000000
3.567362 4.489578 4.000000
4.689702 1.122609 4.000000
4.689578 2.244949 4.000000
4.689578 3.367362 4.000000
4.689702 4.489702 4.000000
16.922609 1.122609 4.000000
16.922732 2.244949 4.000000
16.922732 3.367362 4.000000
16.922609 4.489702 4.000000
18.044949 1.122732 4.000000
18.044955 2.244955 4.000000
18.044955 3.367355 4.000000
18.044949 4.489578 4.000000
19.167362 1.122732 4.000000
19.167355 2.244955 4.000000
19.167355 3.367355 4.000000
19.167362 4.489578 4.000000
20.289702 1.122609 4.000000
20.289578 2.244949 4.000000
20.289578 3.367362 4.000000
20.289702 4.489702 4.000000
CELLS 0 0
CELL_TYPES 0
POINT_DATA 32
SCALARS m double
LOOKUP_TABLE default
1.000000
1.000000
1.000000
1.000000
1.000000
1.000000
1.000000
1.000000
1.000000
1.000000
1.000000
1.000000
1.000000
1.000000
1.000000
1.000000
1.000000
1.000000
1.000000
1.000000
1.000000
1.000000
1.000000
1.000000
1.000000
1.000000
1.000000
1.000000
1.000000
1.000000
1.000000
1.000000
VECTORS v double
10.014641 0.014641 0.000000
10.026995 0.002470 0.000000
10.026995 -0.002470 0.000000
10.014641 -0.014641 0.000000
10.002470 0.026995 0.000000
10.003176 0.003176 0.000000
10.003176 -0.003176 0.000000
10.002470 -0.026995 0.000000
9.997530 0.026995 0.000000
9.996824 0.003176 0.000000
9.996824 -0.003176 0.000000
9.997530 -0.026995 0.000000
9.985359 0.014641 0.000000
9.973005 0.002470 0.000000
9.973005 -0.002470 0.000000
9.985359 -0.014641 0.000000
-9.985359 0.014641 0.000000
-9.973005 0.002470 0.000000
-9.973005 -0.002470 0.000000
-9.985359 -0.014641 0.000000
-9.997530 0.026995 0.000000
-9.996824 0.003176 0.000000
-9.996824 -0.003176 0.000000
-9.997530 -0.026995 0.000000
-10.002470 0.026995 0.000000
-10.003176 0.003176 0.000000
-10.003176 -0.003176 0.000000
-10.002470 -0.026995 0.000000
-10.014641 0.014641 0.000000
-10.026995 0.002470 0.000000
-10.026995 -0.002470 0.000000
-10.014641 -0.014641 0.000000
