# vtk DataFile Version 4.0
hesp visualization file
ASCII
DATASET UNSTRUCTURED_GRID
POINTS 32 double
-1.129303 0.384772 4.000000
-2.314574 2.171833 4.000000
-2.314574 3.440477 4.000000
-1.129303 5.227538 4.000000
-0.983821 -2.158682 4.000000
0.034288 1.731624 4.000000
0.034288 3.880686 4.000000
-0.983821 7.770992 4.000000
4.683955 -5.132606 4.000000
2.033139 -0.635182 4.000000
2.033139 6.247493 4.000000
4.683955 10.744917 4.000000
8.053611 -5.376530 4.000000
9.073692 1.214693 4.000000
9.073692 4.397617 4.000000
8.053611 10.988840 4.000000
13.558699 -5.376530 4.000000
12.538619 1.214693 4.000000
12.538619 4.397617 4.000000
13.558699 10.988840 4.000000
16.928355 -5.132606 4.000000
19.579171 -0.635182 4.000000
19.579171 6.247493 4.000000
16.928355 10.744917 4.000000
22.596131 -2.158682 4.000000
21.578022 1.731624 4.000000
21.578022 3.880686 4.000000
22.596131 7.770992 4.000000
22.741613 0.384772 4.000000
23.926884 2.171833 4.000000
23.926884 3.440477 4.000000
22.741613 5.227538 4.000000
CELLS 0 0
CELL_TYPES 0
POINT_DATA 32
SCALARS m double
LOOKUP_TABLE default
1.000000
1.000000
1.000000
1.000000
1.000000
1.000000
1.000000
1.000000
1.000000
1.000000
1.000000
1.000000
1.000000
1.000000
1.000000
1.000000
1.000000
1.000000
1.000000
1.000000
1.000000
1.000000
1.000000
1.000000
1.000000
1.000000
1.000000
1.000000
1.000000
1.000000
1.000000
1.000000
VECTORS v double
-10.549253 -1.194029 0.000000
-11.927726 0.197965 0.000000
-11.927726 -0.197965 0.000000
-10.549253 1.194029 0.000000
-12.473706 -4.556857 0.000000
-9.783017 -0.253017 0.000000
-9.783017 0.253017 0.000000
-12.473706 4.556857 0.000000
-6.240278 -8.727833 0.000000
-8.308608 -3.184650 0.000000
-8.308608 3.184650 0.000000
-6.240278 8.727833 0.000000
-3.072764 -7.775533 0.000000
-1.403861 -0.915589 0.000000
-1.403861 0.915589 0.000000
-3.072764 7.775533 0.000000
3.072764 -7.775533 0.000000
1.403861 -0.915589 0.000000
1.403861 0.915589 0.000000
3.072764 7.775533 0.000000
6.240278 -8.727833 0.000000
8.308608 -3.184650 0.000000
8.308608 3.184650 0.000000
6.240278 8.727833 0.000000
12.473706 -4.556857 0.000000
9.783017 -0.253017 0.000000
9.783017 0.253017 0.000000
12.473706 4.556857 0.000000
10.549253 -1.194029 0.000000
11.927726 0.197965 0.000000
11.927726 -0.197965 0.000000
10.549253 1.194029 0.000000
