# vtk DataFile Version 4.0
hesp visualization file
ASCII
DATASET UNSTRUCTURED_GRID
POINTS 32 double
-2.183339 0.266962 4.000000
-3.506812 2.203162 4.000000
-3.506812 3.409148 4.000000
-2.183339 5.345348 4.000000
-2.231179 -2.614220 4.000000
-0.945388 1.705597 4.000000
-0.945388 3.906713 4.000000
-2.231179 8.226531 4.000000
4.059946 -6.005390 4.000000
1.202217 -0.953620 4.000000
1.202217 6.565930 4.000000
4.059946 11.617700 4.000000
7.746316 -6.154082 4.000000
8.933324 1.123167 4.000000
8.933324 4.489143 4.000000
7.746316 11.766392 4.000000
13.865994 -6.154082 4.000000
12.678987 1.123167 4.000000
12.678987 4.489143 4.000000
13.865994 11.766392 4.000000
17.552364 -6.005390 4.000000
20.410093 -0.953620 4.000000
20.410093 6.565930 4.000000
17.552364 11.617700 4.000000
23.843489 -2.614220 4.000000
22.557698 1.705597 4.000000
22.557698 3.906713 4.000000
23.843489 8.226531 4.000000
23.795649 0.266962 4.000000
25.119122 2.203162 4.000000
25.119122 3.409148 4.000000
23.795649 5.345348 4.000000
CELLS 0 0
CELL_TYPES 0
POINT_DATA 32
SCALARS m double
LOOKUP_TABLE default
1.000000
1.000000
1.000000
1.000000
1.000000
1.000000
1.000000
1.000000
1.000000
1.000000
1.000000
1.000000
1.000000
1.000000
1.000000
1.000000
1.000000
1.000000
1.000000
1.000000
1.000000
1.000000
1.000000
1.000000
1.000000
1.000000
1.000000
1.000000
1.000000
1.000000
1.000000
1.000000
VECTORS v double
-10.532584 -1.164342 0.000000
-11.917973 0.428301 0.000000
-11.917973 -0.428301 0.000000
-10.532584 1.164342 0.000000
-12.473459 -4.554281 0.000000
-9.808573 -0.266124 0.000000
-9.808573 0.266124 0.000000
-12.473459 4.554281 0.000000
-6.239935 -8.727835 0.000000
-8.309703 -3.184145 0.000000
-8.309703 3.184145 0.000000
-6.239935 8.727835 0.000000
-3.073108 -7.775507 0.000000
-1.403529 -0.914970 0.000000
-1.403529 0.914970 0.000000
-3.073108 7.775507 0.000000
3.073108 -7.775507 0.000000
1.403529 -0.914970 0.000000
1.403529 0.914970 0.000000
3.073108 7.775507 0.000000
6.239935 -8.727835 0.000000
8.309703 -3.184145 0.000000
8.309703 3.184145 0.000000
6.239935 8.727835 0.000000
12.473459 -4.554281 0.000000
9.808573 -0.266124 0.000000
9.808573 0.266124 0.000000
12.473459 4.554281 0.000000
10.532584 -1.164342 0.000000
11.917973 0.428301 0.000000
11.917973 -0.428301 0.000000
10.532584 1.164342 0.000000
