# vtk DataFile Version 4.0
hesp visualization file
ASCII
DATASET UNSTRUCTURED_GRID
POINTS 32 double
-4.708156 -0.007423 4.000000
-6.365713 2.272565 4.000000
-6.365713 3.339745 4.000000
-4.708156 5.619733 4.000000
-5.224763 -3.706973 4.000000
-3.303763 1.640065 4.000000
-3.303763 3.972245 4.000000
-5.224763 9.319283 4.000000
2.562410 -8.100069 4.000000
-0.792253 -1.717739 4.000000
-0.792253 7.330049 4.000000
2.562410 13.712379 4.000000
7.008722 -8.020202 4.000000
8.596527 0.903685 4.000000
8.596527 4.708625 4.000000
7.008722 13.632512 4.000000
14.603588 -8.020202 4.000000
13.015783 0.903685 4.000000
13.015783 4.708625 4.000000
14.603588 13.632512 4.000000
19.049900 -8.100069 4.000000
22.404564 -1.717739 4.000000
22.404564 7.330049 4.000000
19.049900 13.712379 4.000000
26.837073 -3.706973 4.000000
24.916074 1.640065 4.000000
24.916074 3.972245 4.000000
26.837073 9.319283 4.000000
26.320467 -0.007423 4.000000
27.978023 2.272565 4.000000
27.978023 3.339745 4.000000
26.320467 5.619733 4.000000
CELLS 0 0
CELL_TYPES 0
POINT_DATA 32
SCALARS m double
LOOKUP_TABLE default
1.000000
1.000000
1.000000
1.000000
1.000000
1.000000
1.000000
1.000000
1.000000
1.000000
1.000000
1.000000
1.000000
1.000000
1.000000
1.000000
1.000000
1.000000
1.000000
1.000000
1.000000
1.000000
1.000000
1.000000
1.000000
1.000000
1.000000
1.000000
1.000000
1.000000
1.000000
1.000000
VECTORS v double
-10.510610 -1.127779 0.000000
-11.908133 -0.419643 0.000000
-11.908133 0.419643 0.000000
-10.510610 1.127779 0.000000
-12.473135 -4.552501 0.000000
-9.839736 -0.276879 0.000000
-9.839736 0.276879 0.000000
-12.473135 4.552501 0.000000
-6.239605 -8.727825 0.000000
-8.310664 -3.183620 0.000000
-8.310664 3.183620 0.000000
-6.239605 8.727825 0.000000
-3.073438 -7.775498 0.000000
-1.403175 -0.914163 0.000000
-1.403175 0.914163 0.000000
-3.073438 7.775498 0.000000
3.073438 -7.775498 0.000000
1.403175 -0.914163 0.000000
1.403175 0.914163 0.000000
3.073438 7.775498 0.000000
6.239605 -8.727825 0.000000
8.310664 -3.183620 0.000000
8.310664 3.183620 0.000000
6.239605 8.727825 0.000000
12.473135 -4.552501 0.000000
9.839736 -0.276879 0.000000
9.839736 0.276879 0.000000
12.473135 4.552501 0.000000
10.510610 -1.127779 0.000000
11.908133 -0.419643 0.000000
11.908133 0.419643 0.000000
10.510610 1.127779 0.000000
