# vtk DataFile Version 4.0
hesp visualization file
ASCII
DATASET UNSTRUCTURED_GRID
POINTS 32 double
0.032580 0.518762 4.000000
-1.001547 2.163434 4.000000
-1.001547 3.448876 4.000000
0.032580 5.093548 4.000000
0.388297 -1.657096 4.000000
1.108093 1.758088 4.000000
1.108093 3.854222 4.000000
0.388297 7.269406 4.000000
5.370422 -4.172546 4.000000
2.946962 -0.284822 4.000000
2.946962 5.897132 4.000000
5.370422 9.784856 4.000000
8.391580 -4.521218 4.000000
9.228149 1.315461 4.000000
9.228149 4.296849 4.000000
8.391580 10.133528 4.000000
13.220731 -4.521218 4.000000
12.384161 1.315461 4.000000
12.384161 4.296849 4.000000
13.220731 10.133528 4.000000
16.241889 -4.172546 4.000000
18.665349 -0.284822 4.000000
18.665349 5.897132 4.000000
16.241889 9.784856 4.000000
21.224013 -1.657096 4.000000
20.504217 1.758088 4.000000
20.504217 3.854222 4.000000
21.224013 7.269406 4.000000
21.579731 0.518762 4.000000
22.613857 2.163434 4.000000
22.613857 3.448876 4.000000
21.579731 5.093548 4.000000
CELLS 0 0
CELL_TYPES 0
POINT_DATA 32
SCALARS m double
LOOKUP_TABLE default
1.000000
1.000000
1.000000
1.000000
1.000000
1.000000
1.000000
1.000000
1.000000
1.000000
1.000000
1.000000
1.000000
1.000000
1.000000
1.000000
1.000000
1.000000
1.000000
1.000000
1.000000
1.000000
1.000000
1.000000
1.000000
1.000000
1.000000
1.000000
1.000000
1.000000
1.000000
1.000000
VECTORS v double
-10.578489 -1.246641 0.000000
-11.947690 -0.042392 0.000000
-11.947690 0.042392 0.000000
-10.578489 1.246641 0.000000
-12.473811 -4.564064 0.000000
-9.736390 -0.224897 0.000000
-9.736390 0.224897 0.000000
-12.473811 4.564064 0.000000
-6.241016 -8.727805 0.000000
-8.305974 -3.185638 0.000000
-8.305974 3.185638 0.000000
-6.241016 8.727805 0.000000
-3.072025 -7.775618 0.000000
-1.404521 -0.916633 0.000000
-1.404521 0.916633 0.000000
-3.072025 7.775618 0.000000
3.072025 -7.775618 0.000000
1.404521 -0.916633 0.000000
1.404521 0.916633 0.000000
3.072025 7.775618 0.000000
6.241016 -8.727805 0.000000
8.305974 -3.185638 0.000000
8.305974 3.185638 0.000000
6.241016 8.727805 0.000000
12.473811 -4.564064 0.000000
9.736390 -0.224897 0.000000
9.736390 0.224897 0.000000
12.473811 4.564064 0.000000
10.578489 -1.246641 0.000000
11.947690 -0.042392 0.000000
11.947690 0.042392 0.000000
10.578489 1.246641 0.000000
