# vtk DataFile Version 4.0
hesp visualization file
ASCII
DATASET UNSTRUCTURED_GRID
POINTS 32 double
-2.920313 0.185986 4.000000
-4.340914 2.237866 4.000000
-4.340914 3.374445 4.000000
-2.920313 5.426324 4.000000
-3.104316 -2.932986 4.000000
-1.632440 1.686771 4.000000
-1.632440 3.925539 4.000000
-3.104316 8.545297 4.000000
3.623156 -6.616338 4.000000
0.620522 -1.176502 4.000000
0.620522 6.788812 4.000000
3.623156 12.228648 4.000000
7.531193 -6.698367 4.000000
8.835082 1.059130 4.000000
8.835082 4.553180 4.000000
7.531193 12.310677 4.000000
14.081117 -6.698367 4.000000
12.777228 1.059130 4.000000
12.777228 4.553180 4.000000
14.081117 12.310677 4.000000
17.989154 -6.616338 4.000000
20.991789 -1.176502 4.000000
20.991789 6.788812 4.000000
17.989154 12.228648 4.000000
24.716627 -2.932986 4.000000
23.244750 1.686771 4.000000
23.244750 3.925539 4.000000
24.716627 8.545297 4.000000
24.532623 0.185986 4.000000
25.953224 2.237866 4.000000
25.953224 3.374445 4.000000
24.532623 5.426324 4.000000
CELLS 0 0
CELL_TYPES 0
POINT_DATA 32
SCALARS m double
LOOKUP_TABLE default
1.000000
1.000000
1.000000
1.000000
1.000000
1.000000
1.000000
1.000000
1.000000
1.000000
1.000000
1.000000
1.000000
1.000000
1.000000
1.000000
1.000000
1.000000
1.000000
1.000000
1.000000
1.000000
1.000000
1.000000
1.000000
1.000000
1.000000
1.000000
1.000000
1.000000
1.000000
1.000000
VECTORS v double
-10.524174 -1.149947 0.000000
-11.913777 0.545880 0.000000
-11.913777 -0.545880 0.000000
-10.524174 1.149947 0.000000
-12.473325 -4.553403 0.000000
-9.820876 -0.271355 0.000000
-9.820876 0.271355 0.000000
-12.473325 4.553403 0.000000
-6.239791 -8.727833 0.000000
-8.310135 -3.183922 0.000000
-8.310135 3.183922 0.000000
-6.239791 8.727833 0.000000
-3.073252 -7.775501 0.000000
-1.403381 -0.914659 0.000000
-1.403381 0.914659 0.000000
-3.073252 7.775501 0.000000
3.073252 -7.775501 0.000000
1.403381 -0.914659 0.000000
1.403381 0.914659 0.000000
3.073252 7.775501 0.000000
6.239791 -8.727833 0.000000
8.310135 -3.183922 0.000000
8.310135 3.183922 0.000000
6.239791 8.727833 0.000000
12.473325 -4.553403 0.000000
9.820876 -0.271355 0.000000
9.820876 0.271355 0.000000
12.473325 4.553403 0.000000
10.524174 -1.149947 0.000000
11.913777 0.545880 0.000000
11.913777 -0.545880 0.000000
10.524174 1.149947 0.000000
