# vtk DataFile Version 4.0
hesp visualization file
ASCII
DATASET UNSTRUCTURED_GRID
POINTS 32 double
4.247119 1.147119 4.000000
4.267399 2.253906 4.000000
4.267399 3.358404 4.000000
4.247119 4.465192 4.000000
5.353907 1.167399 4.000000
5.361952 2.261952 4.000000
5.361952 3.350358 4.000000
5.353907 4.444911 4.000000
6.458404 1.167399 4.000000
6.450359 2.261952 4.000000
6.450359 3.350358 4.000000
6.458404 4.444911 4.000000
7.565193 1.147119 4.000000
7.544912 2.253906 4.000000
7.544912 3.358404 4.000000
7.565193 4.465192 4.000000
14.047118 1.147119 4.000000
14.067398 2.253906 4.000000
14.067398 3.358404 4.000000
14.047118 4.465192 4.000000
15.153906 1.167399 4.000000
15.161952 2.261952 4.000000
15.161952 3.350358 4.000000
15.153906 4.444911 4.000000
16.258404 1.167399 4.000000
16.250358 2.261952 4.000000
16.250358 3.350358 4.000000
16.258404 4.444911 4.000000
17.365192 1.147119 4.000000
17.344911 2.253906 4.000000
17.344911 3.358404 4.000000
17.365192 4.465192 4.000000
CELLS 0 0
CELL_TYPES 0
POINT_DATA 32
SCALARS m double
LOOKUP_TABLE default
1.000000
1.000000
1.000000
1.000000
1.000000
1.000000
1.000000
1.000000
1.000000
1.000000
1.000000
1.000000
1.000000
1.000000
1.000000
1.000000
1.000000
1.000000
1.000000
1.000000
1.000000
1.000000
1.000000
1.000000
1.000000
1.000000
1.000000
1.000000
1.000000
1.000000
1.000000
1.000000
VECTORS v double
10.102420 0.102418 0.000000
10.185718 0.053910 0.000000
10.185718 -0.053910 0.000000
10.102420 -0.102418 0.000000
10.053914 0.185716 0.000000
10.109065 0.109061 0.000000
10.109065 -0.109061 0.000000
10.053914 -0.185716 0.000000
9.946096 0.185717 0.000000
9.890946 0.109061 0.000000
9.890946 -0.109061 0.000000
9.946096 -0.185717 0.000000
9.897595 0.102420 0.000000
9.814297 0.053911 0.000000
9.814297 -0.053911 0.000000
9.897595 -0.102420 0.000000
-9.897595 0.102420 0.000000
-9.814297 0.053911 0.000000
-9.814297 -0.053911 0.000000
-9.897595 -0.102420 0.000000
-9.946096 0.185717 0.000000
-9.890946 0.109061 0.000000
-9.890946 -0.109061 0.000000
-9.946096 -0.185717 0.000000
-10.053914 0.185716 0.000000
-10.109065 0.109061 0.000000
-10.109065 -0.109061 0.000000
-10.053914 -0.185716 0.000000
-10.102420 0.102418 0.000000
-10.185718 0.053910 0.000000
-10.185718 -0.053910 0.000000
-10.102420 -0.102418 0.000000
