# vtk DataFile Version 4.0
hesp visualization file
ASCII
DATASET UNSTRUCTURED_GRID
POINTS 32 double
1.092548 0.647056 4.000000
0.194771 2.178124 4.000000
0.194771 3.434186 4.000000
1.092548 4.965255 4.000000
1.635636 -1.199968 4.000000
2.078357 1.778346 4.000000
2.078357 3.833964 4.000000
1.635636 6.812278 4.000000
5.994584 -3.299769 4.000000
3.777312 0.033812 4.000000
3.777312 5.578499 4.000000
5.994584 8.912080 4.000000
8.698722 -3.743646 4.000000
9.368652 1.407193 4.000000
9.368652 4.205117 4.000000
8.698722 9.355957 4.000000
12.913589 -3.743646 4.000000
12.243658 1.407193 4.000000
12.243658 4.205117 4.000000
12.913589 9.355957 4.000000
15.617727 -3.299769 4.000000
17.834998 0.033812 4.000000
17.834998 5.578499 4.000000
15.617727 8.912080 4.000000
19.976674 -1.199968 4.000000
19.533954 1.778346 4.000000
19.533954 3.833964 4.000000
19.976674 6.812278 4.000000
20.519762 0.647056 4.000000
21.417539 2.178124 4.000000
21.417539 3.434186 4.000000
20.519762 4.965255 4.000000
CELLS 0 0
CELL_TYPES 0
POINT_DATA 32
SCALARS m double
LOOKUP_TABLE default
1.000000
1.000000
1.000000
1.000000
1.000000
1.000000
1.000000
1.000000
1.000000
1.000000
1.000000
1.000000
1.000000
1.000000
1.000000
1.000000
1.000000
1.000000
1.000000
1.000000
1.000000
1.000000
1.000000
1.000000
1.000000
1.000000
1.000000
1.000000
1.000000
1.000000
1.000000
1.000000
VECTORS v double
-10.625709 -1.325828 0.000000
-11.982326 -0.249991 0.000000
-11.982326 0.249991 0.000000
-10.625709 1.325828 0.000000
-12.472545 -4.581094 0.000000
-9.661706 -0.174792 0.000000
-9.661706 0.174792 0.000000
-12.472545 4.581094 0.000000
-6.242386 -8.727704 0.000000
-8.300168 -3.187135 0.000000
-8.300168 3.187135 0.000000
-6.242386 8.727704 0.000000
-3.070650 -7.775847 0.000000
-1.405662 -0.918121 0.000000
-1.405662 0.918121 0.000000
-3.070650 7.775847 0.000000
3.070650 -7.775847 0.000000
1.405662 -0.918121 0.000000
1.405662 0.918121 0.000000
3.070650 7.775847 0.000000
6.242386 -8.727704 0.000000
8.300168 -3.187135 0.000000
8.300168 3.187135 0.000000
6.242386 8.727704 0.000000
12.472545 -4.581094 0.000000
9.661706 -0.174792 0.000000
9.661706 0.174792 0.000000
12.472545 4.581094 0.000000
10.625709 -1.325828 0.000000
11.982326 -0.249991 0.000000
11.982326 0.249991 0.000000
10.625709 1.325828 0.000000
