# vtk DataFile Version 4.0
hesp visualization file
ASCII
DATASET UNSTRUCTURED_GRID
POINTS 32 double
6.158039 1.158037 4.000000
6.186715 2.257973 4.000000
6.186715 3.354337 4.000000
6.158039 4.454273 4.000000
7.257977 1.186713 4.000000
7.267486 2.267480 4.000000
7.267486 3.344830 4.000000
7.257977 4.425597 4.000000
8.354349 1.186714 4.000000
8.344844 2.267481 4.000000
8.344844 3.344829 4.000000
8.354349 4.425596 4.000000
9.454309 1.158045 4.000000
9.425640 2.257975 4.000000
9.425640 3.354335 4.000000
9.454309 4.454266 4.000000
12.158001 1.158045 4.000000
12.186670 2.257975 4.000000
12.186670 3.354335 4.000000
12.158001 4.454266 4.000000
13.257961 1.186714 4.000000
13.267467 2.267481 4.000000
13.267467 3.344829 4.000000
13.257961 4.425596 4.000000
14.354333 1.186713 4.000000
14.344825 2.267480 4.000000
14.344825 3.344830 4.000000
14.354333 4.425597 4.000000
15.454271 1.158037 4.000000
15.425595 2.257973 4.000000
15.425595 3.354337 4.000000
15.454271 4.454273 4.000000
CELLS 0 0
CELL_TYPES 0
POINT_DATA 32
SCALARS m double
LOOKUP_TABLE default
1.000000
1.000000
1.000000
1.000000
1.000000
1.000000
1.000000
1.000000
1.000000
1.000000
1.000000
1.000000
1.000000
1.000000
1.000000
1.000000
1.000000
1.000000
1.000000
1.000000
1.000000
1.000000
1.000000
1.000000
1.000000
1.000000
1.000000
1.000000
1.000000
1.000000
1.000000
1.000000
VECTORS v double
9.995154 -0.004874 0.000000
9.971464 -0.017654 0.000000
9.971464 0.017654 0.000000
9.995154 0.004874 0.000000
9.982424 -0.028569 0.000000
9.961232 -0.038866 0.000000
9.961232 0.038866 0.000000
9.982424 0.028569 0.000000
10.017912 -0.028543 0.000000
10.039195 -0.038856 0.000000
10.039195 0.038856 0.000000
10.017912 0.028543 0.000000
10.005977 -0.004641 0.000000
10.029876 -0.017577 0.000000
10.029876 0.017577 0.000000
10.005977 0.004641 0.000000
-10.005977 -0.004641 0.000000
-10.029876 -0.017577 0.000000
-10.029876 0.017577 0.000000
-10.005977 0.004641 0.000000
-10.017912 -0.028543 0.000000
-10.039195 -0.038856 0.000000
-10.039195 0.038856 0.000000
-10.017912 0.028543 0.000000
-9.982424 -0.028569 0.000000
-9.961232 -0.038866 0.000000
-9.961232 0.038866 0.000000
-9.982424 0.028569 0.000000
-9.995154 -0.004874 0.000000
-9.971464 -0.017654 0.000000
-9.971464 0.017654 0.000000
-9.995154 0.004874 0.000000
