# vtk DataFile Version 4.0
hesp visualization file
ASCII
DATASET UNSTRUCTURED_GRID
POINTS 32 double
-4.813260 -0.018696 4.000000
-6.484793 2.268114 4.000000
-6.484793 3.344196 4.000000
-4.813260 5.631006 4.000000
-5.349494 -3.752498 4.000000
-3.402165 1.637296 4.000000
-3.402165 3.975015 4.000000
-5.349494 9.364808 4.000000
2.500014 -8.187347 4.000000
-0.875360 -1.749575 4.000000
-0.875360 7.361886 4.000000
2.500014 13.799658 4.000000
6.977988 -8.097957 4.000000
8.582495 0.894543 4.000000
8.582495 4.717767 4.000000
6.977988 13.710267 4.000000
14.634322 -8.097957 4.000000
13.029815 0.894543 4.000000
13.029815 4.717767 4.000000
14.634322 13.710267 4.000000
19.112296 -8.187347 4.000000
22.487670 -1.749575 4.000000
22.487670 7.361886 4.000000
19.112296 13.799658 4.000000
26.961805 -3.752498 4.000000
25.014475 1.637296 4.000000
25.014475 3.975015 4.000000
26.961805 9.364808 4.000000
26.425570 -0.018696 4.000000
28.097103 2.268114 4.000000
28.097103 3.344196 4.000000
26.425570 5.631006 4.000000
CELLS 0 0
CELL_TYPES 0
POINT_DATA 32
SCALARS m double
LOOKUP_TABLE default
1.000000
1.000000
1.000000
1.000000
1.000000
1.000000
1.000000
1.000000
1.000000
1.000000
1.000000
1.000000
1.000000
1.000000
1.000000
1.000000
1.000000
1.000000
1.000000
1.000000
1.000000
1.000000
1.000000
1.000000
1.000000
1.000000
1.000000
1.000000
1.000000
1.000000
1.000000
1.000000
VECTORS v double
-10.510036 -1.126849 0.000000
-11.907914 -0.467359 0.000000
-11.907914 0.467359 0.000000
-10.510036 1.126849 0.000000
-12.473128 -4.552474 0.000000
-9.840517 -0.277009 0.000000
-9.840517 0.277009 0.000000
-12.473128 4.552474 0.000000
-6.239598 -8.727825 0.000000
-8.310683 -3.183609 0.000000
-8.310683 3.183609 0.000000
-6.239598 8.727825 0.000000
-3.073444 -7.775498 0.000000
-1.403167 -0.914142 0.000000
-1.403167 0.914142 0.000000
-3.073444 7.775498 0.000000
3.073444 -7.775498 0.000000
1.403167 -0.914142 0.000000
1.403167 0.914142 0.000000
3.073444 7.775498 0.000000
6.239598 -8.727825 0.000000
8.310683 -3.183609 0.000000
8.310683 3.183609 0.000000
6.239598 8.727825 0.000000
12.473128 -4.552474 0.000000
9.840517 -0.277009 0.000000
9.840517 0.277009 0.000000
12.473128 4.552474 0.000000
10.510036 -1.126849 0.000000
11.907914 -0.467359 0.000000
11.907914 0.467359 0.000000
10.510036 1.126849 0.000000
