# vtk DataFile Version 4.0
hesp visualization file
ASCII
DATASET UNSTRUCTURED_GRID
POINTS 32 double
-0.390301 0.469357 4.000000
-1.479270 2.163442 4.000000
-1.479270 3.448868 4.000000
-0.390301 5.142953 4.000000
-0.110656 -1.839585 4.000000
0.718223 1.748830 4.000000
0.718223 3.863480 4.000000
-0.110656 7.451895 4.000000
5.120788 -4.521658 4.000000
2.614697 -0.412239 4.000000
2.614697 6.024549 4.000000
5.120788 10.133969 4.000000
8.268692 -4.832242 4.000000
9.171974 1.278804 4.000000
9.171974 4.333506 4.000000
8.268692 10.444552 4.000000
13.343618 -4.832242 4.000000
12.440336 1.278804 4.000000
12.440336 4.333506 4.000000
13.343618 10.444552 4.000000
16.491522 -4.521658 4.000000
18.997614 -0.412239 4.000000
18.997614 6.024549 4.000000
16.491522 10.133969 4.000000
21.722967 -1.839585 4.000000
20.894088 1.748830 4.000000
20.894088 3.863480 4.000000
21.722967 7.451895 4.000000
22.002612 0.469357 4.000000
23.091581 2.163442 4.000000
23.091581 3.448868 4.000000
22.002612 5.142953 4.000000
CELLS 0 0
CELL_TYPES 0
POINT_DATA 32
SCALARS m double
LOOKUP_TABLE default
1.000000
1.000000
1.000000
1.000000
1.000000
1.000000
1.000000
1.000000
1.000000
1.000000
1.000000
1.000000
1.000000
1.000000
1.000000
1.000000
1.000000
1.000000
1.000000
1.000000
1.000000
1.000000
1.000000
1.000000
1.000000
1.000000
1.000000
1.000000
1.000000
1.000000
1.000000
1.000000
VECTORS v double
-10.566001 -1.224327 0.000000
-11.938868 0.043087 0.000000
-11.938868 -0.043087 0.000000
-10.566001 1.224327 0.000000
-12.473838 -4.560591 0.000000
-9.756424 -0.237441 0.000000
-9.756424 0.237441 0.000000
-12.473838 4.560591 0.000000
-6.240684 -8.727821 0.000000
-8.307202 -3.185210 0.000000
-8.307202 3.185210 0.000000
-6.240684 8.727821 0.000000
-3.072358 -7.775575 0.000000
-1.404230 -0.916197 0.000000
-1.404230 0.916197 0.000000
-3.072358 7.775575 0.000000
3.072358 -7.775575 0.000000
1.404230 -0.916197 0.000000
1.404230 0.916197 0.000000
3.072358 7.775575 0.000000
6.240684 -8.727821 0.000000
8.307202 -3.185210 0.000000
8.307202 3.185210 0.000000
6.240684 8.727821 0.000000
12.473838 -4.560591 0.000000
9.756424 -0.237441 0.000000
9.756424 0.237441 0.000000
12.473838 4.560591 0.000000
10.566001 -1.224327 0.000000
11.938868 0.043087 0.000000
11.938868 -0.043087 0.000000
10.566001 1.224327 0.000000
