# vtk DataFile Version 4.0
hesp visualization file
ASCII
DATASET UNSTRUCTURED_GRID
POINTS 32 double
-3.446397 0.128697 4.000000
-4.936546 2.264710 4.000000
-4.936546 3.347600 4.000000
-3.446397 5.483613 4.000000
-3.727981 -3.160646 4.000000
-2.123661 1.673138 4.000000
-2.123661 3.939172 4.000000
-3.727981 8.772957 4.000000
3.311169 -7.052730 4.000000
0.205009 -1.335695 4.000000
0.205009 6.948005 4.000000
3.311169 12.665040 4.000000
7.377529 -7.087142 4.000000
8.764915 1.013402 4.000000
8.764915 4.598908 4.000000
7.377529 12.699452 4.000000
14.234782 -7.087142 4.000000
12.847395 1.013402 4.000000
12.847395 4.598908 4.000000
14.234782 12.699452 4.000000
18.301142 -7.052730 4.000000
21.407301 -1.335695 4.000000
21.407301 6.948005 4.000000
18.301142 12.665040 4.000000
25.340291 -3.160646 4.000000
23.735971 1.673138 4.000000
23.735971 3.939172 4.000000
25.340291 8.772957 4.000000
25.058707 0.128697 4.000000
26.548857 2.264710 4.000000
26.548857 3.347600 4.000000
25.058707 5.483613 4.000000
CELLS 0 0
CELL_TYPES 0
POINT_DATA 32
SCALARS m double
LOOKUP_TABLE default
1.000000
1.000000
1.000000
1.000000
1.000000
1.000000
1.000000
1.000000
1.000000
1.000000
1.000000
1.000000
1.000000
1.000000
1.000000
1.000000
1.000000
1.000000
1.000000
1.000000
1.000000
1.000000
1.000000
1.000000
1.000000
1.000000
1.000000
1.000000
1.000000
1.000000
1.000000
1.000000
VECTORS v double
-10.519324 -1.141900 0.000000
-11.911615 0.493980 0.000000
-11.911615 -0.493980 0.000000
-10.519324 1.141900 0.000000
-12.473251 -4.553014 0.000000
-9.827745 -0.273805 0.000000
-9.827745 0.273805 0.000000
-12.473251 4.553014 0.000000
-6.239718 -8.727831 0.000000
-8.310347 -3.183805 0.000000
-8.310347 3.183805 0.000000
-6.239718 8.727831 0.000000
-3.073325 -7.775499 0.000000
-1.403303 -0.914481 0.000000
-1.403303 0.914481 0.000000
-3.073325 7.775499 0.000000
3.073325 -7.775499 0.000000
1.403303 -0.914481 0.000000
1.403303 0.914481 0.000000
3.073325 7.775499 0.000000
6.239718 -8.727831 0.000000
8.310347 -3.183805 0.000000
8.310347 3.183805 0.000000
6.239718 8.727831 0.000000
12.473251 -4.553014 0.000000
9.827745 -0.273805 0.000000
9.827745 0.273805 0.000000
12.473251 4.553014 0.000000
10.519324 -1.141900 0.000000
11.911615 0.493980 0.000000
11.911615 -0.493980 0.000000
10.519324 1.141900 0.000000
