# vtk DataFile Version 4.0
hesp visualization file
ASCII
DATASET UNSTRUCTURED_GRID
POINTS 32 double
-0.918276 0.408728 4.000000
-2.075993 2.168325 4.000000
-2.075993 3.443985 4.000000
-0.918276 5.203582 4.000000
-0.734347 -2.067536 4.000000
0.229883 1.736647 4.000000
0.229883 3.875663 4.000000
-0.734347 7.679847 4.000000
4.808762 -4.958050 4.000000
2.199308 -0.571488 4.000000
2.199308 6.183798 4.000000
4.808762 10.570360 4.000000
8.115066 -5.221019 4.000000
9.101770 1.233006 4.000000
9.101770 4.379304 4.000000
8.115066 10.833330 4.000000
13.497245 -5.221019 4.000000
12.510540 1.233006 4.000000
12.510540 4.379304 4.000000
13.497245 10.833330 4.000000
16.803548 -4.958050 4.000000
19.413002 -0.571488 4.000000
19.413002 6.183798 4.000000
16.803548 10.570360 4.000000
22.346657 -2.067536 4.000000
21.382427 1.736647 4.000000
21.382427 3.875663 4.000000
22.346657 7.679847 4.000000
22.530587 0.408728 4.000000
23.688303 2.168325 4.000000
23.688303 3.443985 4.000000
22.530587 5.203582 4.000000
CELLS 0 0
CELL_TYPES 0
POINT_DATA 32
SCALARS m double
LOOKUP_TABLE default
1.000000
1.000000
1.000000
1.000000
1.000000
1.000000
1.000000
1.000000
1.000000
1.000000
1.000000
1.000000
1.000000
1.000000
1.000000
1.000000
1.000000
1.000000
1.000000
1.000000
1.000000
1.000000
1.000000
1.000000
1.000000
1.000000
1.000000
1.000000
1.000000
1.000000
1.000000
1.000000
VECTORS v double
-10.553502 -1.201718 0.000000
-11.930452 0.152903 0.000000
-11.930452 -0.152903 0.000000
-10.553502 1.201718 0.000000
-12.473754 -4.557698 0.000000
-9.776327 -0.249244 0.000000
-9.776327 0.249244 0.000000
-12.473754 4.557698 0.000000
-6.240376 -8.727831 0.000000
-8.308279 -3.184789 0.000000
-8.308279 3.184789 0.000000
-6.240376 8.727831 0.000000
-3.072666 -7.775542 0.000000
-1.403952 -0.915745 0.000000
-1.403952 0.915745 0.000000
-3.072666 7.775542 0.000000
3.072666 -7.775542 0.000000
1.403952 -0.915745 0.000000
1.403952 0.915745 0.000000
3.072666 7.775542 0.000000
6.240376 -8.727831 0.000000
8.308279 -3.184789 0.000000
8.308279 3.184789 0.000000
6.240376 8.727831 0.000000
12.473754 -4.557698 0.000000
9.776327 -0.249244 0.000000
9.776327 0.249244 0.000000
12.473754 4.557698 0.000000
10.553502 -1.201718 0.000000
11.930452 0.152903 0.000000
11.930452 -0.152903 0.000000
10.553502 1.201718 0.000000
