# vtk DataFile Version 4.0
hesp visualization file
ASCII
DATASET UNSTRUCTURED_GRID
POINTS 26 double
0.330050 0.330050 0.330050
1.000000 0.340050 0.340050
1.649950 0.350050 0.350050
0.360050 1.000000 0.360050
1.000000 1.000000 0.370050
1.619950 1.000000 0.380050
0.390050 1.609950 0.390050
1.000000 1.599950 0.400050
1.589950 1.589950 0.410050
0.420050 0.420050 1.000000
1.000000 0.430050 1.000000
1.559950 0.440050 1.000000
0.450050 1.000000 1.000000
1.539950 1.000000 1.000000
0.470050 1.529950 1.000000
1.000000 1.519950 1.000000
1.509950 1.509950 1.000000
0.500050 0.500050 1.499950
1.000000 0.510050 1.489950
1.479950 0.520050 1.479950
0.530050 1.000000 1.469950
1.000000 1.000000 1.459950
1.449950 1.000000 1.449950
0.560050 1.439950 1.439950
1.000000 1.429950 1.429950
1.419950 1.419950 1.419950
CELLS 0 0
CELL_TYPES 0
POINT_DATA 26
SCALARS m double
LOOKUP_TABLE default
1.000000
1.000000
1.000000
1.000000
1.000000
1.000000
1.000000
1.000000
1.000000
1.000000
1.000000
1.000000
1.000000
1.000000
1.000000
1.000000
1.000000
1.000000
1.000000
1.000000
1.000000
1.000000
1.000000
1.000000
1.000000
1.000000
VECTORS v double
-1.000000 -1.000000 -1.000000
0.000000 -1.000000 -1.000000
1.000000 -1.000000 -1.000000
-1.000000 0.000000 -1.000000
0.000000 0.000000 -1.000000
1.000000 0.000000 -1.000000
-1.000000 1.000000 -1.000000
0.000000 1.000000 -1.000000
1.000000 1.000000 -1.000000
-1.000000 -1.000000 0.000000
0.000000 -1.000000 0.000000
1.000000 -1.000000 0.000000
-1.000000 0.000000 0.000000
1.000000 0.000000 0.000000
-1.000000 1.000000 0.000000
0.000000 1.000000 0.000000
1.000000 1.000000 0.000000
-1.000000 -1.000000 1.000000
0.000000 -1.000000 1.000000
1.000000 -1.000000 1.000000
-1.000000 0.000000 1.000000
0.000000 0.000000 1.000000
1.000000 0.000000 1.000000
-1.000000 1.000000 1.000000
0.000000 1.000000 1.000000
1.000000 1.000000 1.000000
