# vtk DataFile Version 4.0
hesp visualization file
ASCII
DATASET UNSTRUCTURED_GRID
POINTS 26 double
1.300050 1.300050 1.300050
1.000000 1.310050 1.310050
0.679950 1.320050 1.320050
1.330050 1.000000 1.330050
1.000000 1.000000 1.340050
0.649950 1.000000 1.350050
1.360050 0.639950 1.360050
1.000000 0.629950 1.370050
0.619950 0.619950 1.380050
1.390050 1.390050 1.000000
1.000000 1.400050 1.000000
0.589950 1.410050 1.000000
1.420050 1.000000 1.000000
0.569950 1.000000 1.000000
1.440050 0.559950 1.000000
1.000000 0.549950 1.000000
0.539950 0.539950 1.000000
1.470050 1.470050 0.529950
1.000000 1.480050 0.519950
0.509950 1.490050 0.509950
1.500050 1.000000 0.499950
1.000000 1.000000 0.489950
0.479950 1.000000 0.479950
1.530050 0.469950 0.469950
1.000000 0.459950 0.459950
0.449950 0.449950 0.449950
CELLS 0 0
CELL_TYPES 0
POINT_DATA 26
SCALARS m double
LOOKUP_TABLE default
1.000000
1.000000
1.000000
1.000000
1.000000
1.000000
1.000000
1.000000
1.000000
1.000000
1.000000
1.000000
1.000000
1.000000
1.000000
1.000000
1.000000
1.000000
1.000000
1.000000
1.000000
1.000000
1.000000
1.000000
1.000000
1.000000
VECTORS v double
-1.000000 -1.000000 -1.000000
0.000000 -1.000000 -1.000000
1.000000 -1.000000 -1.000000
-1.000000 0.000000 -1.000000
0.000000 0.000000 -1.000000
1.000000 0.000000 -1.000000
-1.000000 1.000000 -1.000000
0.000000 1.000000 -1.000000
1.000000 1.000000 -1.000000
-1.000000 -1.000000 0.000000
0.000000 -1.000000 0.000000
1.000000 -1.000000 0.000000
-1.000000 0.000000 0.000000
1.000000 0.000000 0.000000
-1.000000 1.000000 0.000000
0.000000 1.000000 0.000000
1.000000 1.000000 0.000000
-1.000000 -1.000000 1.000000
0.000000 -1.000000 1.000000
1.000000 -1.000000 1.000000
-1.000000 0.000000 1.000000
0.000000 0.000000 1.000000
1.000000 0.000000 1.000000
-1.000000 1.000000 1.000000
0.000000 1.000000 1.000000
1.000000 1.000000 1.000000
