# vtk DataFile Version 4.0
hesp visualization file
ASCII
DATASET UNSTRUCTURED_GRID
POINTS 26 double
1.510050 1.510050 1.510050
1.000000 1.520050 1.520050
0.469950 1.530050 1.530050
1.540050 1.000000 1.540050
1.000000 1.000000 1.550050
0.439950 1.000000 1.560050
1.570050 0.429950 1.570050
1.000000 0.419950 1.580050
0.409950 0.409950 1.590050
1.600050 1.600050 1.000000
1.000000 1.610050 1.000000
0.379950 1.620050 1.000000
1.630050 1.000000 1.000000
0.359950 1.000000 1.000000
1.650050 0.349950 1.000000
1.000000 0.339950 1.000000
0.329950 0.329950 1.000000
1.680050 1.680050 0.319950
1.000000 1.690050 0.309950
0.299950 1.700050 0.299950
1.710050 1.000000 0.289950
1.000000 1.000000 0.279950
0.269950 1.000000 0.269950
1.740050 0.259950 0.259950
1.000000 0.249950 0.249950
0.239950 0.239950 0.239950
CELLS 0 0
CELL_TYPES 0
POINT_DATA 26
SCALARS m double
LOOKUP_TABLE default
1.000000
1.000000
1.000000
1.000000
1.000000
1.000000
1.000000
1.000000
1.000000
1.000000
1.000000
1.000000
1.000000
1.000000
1.000000
1.000000
1.000000
1.000000
1.000000
1.000000
1.000000
1.000000
1.000000
1.000000
1.000000
1.000000
VECTORS v double
-1.000000 -1.000000 -1.000000
0.000000 -1.000000 -1.000000
1.000000 -1.000000 -1.000000
-1.000000 0.000000 -1.000000
0.000000 0.000000 -1.000000
1.000000 0.000000 -1.000000
-1.000000 1.000000 -1.000000
0.000000 1.000000 -1.000000
1.000000 1.000000 -1.000000
-1.000000 -1.000000 0.000000
0.000000 -1.000000 0.000000
1.000000 -1.000000 0.000000
-1.000000 0.000000 0.000000
1.000000 0.000000 0.000000
-1.000000 1.000000 0.000000
0.000000 1.000000 0.000000
1.000000 1.000000 0.000000
-1.000000 -1.000000 1.000000
0.000000 -1.000000 1.000000
1.000000 -1.000000 1.000000
-1.000000 0.000000 1.000000
0.000000 0.000000 1.000000
1.000000 0.000000 1.000000
-1.000000 1.000000 1.000000
0.000000 1.000000 1.000000
1.000000 1.000000 1.000000
