# vtk DataFile Version 4.0
hesp visualization file
ASCII
DATASET UNSTRUCTURED_GRID
POINTS 26 double
1.680050 1.680050 1.680050
1.000000 1.690050 1.690050
0.299950 1.700050 1.700050
1.710050 1.000000 1.710050
1.000000 1.000000 1.720050
0.269950 1.000000 1.730050
1.740050 0.259950 1.740050
1.000000 0.249950 1.750050
0.239950 0.239950 1.760050
1.770050 1.770050 1.000000
1.000000 1.780050 1.000000
0.209950 1.790050 1.000000
1.800050 1.000000 1.000000
0.189950 1.000000 1.000000
1.820050 0.179950 1.000000
1.000000 0.169950 1.000000
0.159950 0.159950 1.000000
1.850050 1.850050 0.149950
1.000000 1.860050 0.139950
0.129950 1.870050 0.129950
1.880050 1.000000 0.119950
1.000000 1.000000 0.109950
0.099950 1.000000 0.099950
1.910050 0.089950 0.089950
1.000000 0.079950 0.079950
0.069950 0.069950 0.069950
CELLS 0 0
CELL_TYPES 0
POINT_DATA 26
SCALARS m double
LOOKUP_TABLE default
1.000000
1.000000
1.000000
1.000000
1.000000
1.000000
1.000000
1.000000
1.000000
1.000000
1.000000
1.000000
1.000000
1.000000
1.000000
1.000000
1.000000
1.000000
1.000000
1.000000
1.000000
1.000000
1.000000
1.000000
1.000000
1.000000
VECTORS v double
-1.000000 -1.000000 -1.000000
0.000000 -1.000000 -1.000000
1.000000 -1.000000 -1.000000
-1.000000 0.000000 -1.000000
0.000000 0.000000 -1.000000
1.000000 0.000000 -1.000000
-1.000000 1.000000 -1.000000
0.000000 1.000000 -1.000000
1.000000 1.000000 -1.000000
-1.000000 -1.000000 0.000000
0.000000 -1.000000 0.000000
1.000000 -1.000000 0.000000
-1.000000 0.000000 0.000000
1.000000 0.000000 0.000000
-1.000000 1.000000 0.000000
0.000000 1.000000 0.000000
1.000000 1.000000 0.000000
-1.000000 -1.000000 1.000000
0.000000 -1.000000 1.000000
1.000000 -1.000000 1.000000
-1.000000 0.000000 1.000000
0.000000 0.000000 1.000000
1.000000 0.000000 1.000000
-1.000000 1.000000 1.000000
0.000000 1.000000 1.000000
1.000000 1.000000 1.000000
