# vtk DataFile Version 4.0
hesp visualization file
ASCII
DATASET UNSTRUCTURED_GRID
POINTS 26 double
1.790050 1.790050 1.790050
1.000000 1.800050 1.800050
0.189950 1.810050 1.810050
1.820050 1.000000 1.820050
1.000000 1.000000 1.830050
0.159950 1.000000 1.840050
1.850050 0.149950 1.850050
1.000000 0.139950 1.860050
0.129950 0.129950 1.870050
1.880050 1.880050 1.000000
1.000000 1.890050 1.000000
0.099950 1.900050 1.000000
1.910050 1.000000 1.000000
0.079950 1.000000 1.000000
1.930050 0.069950 1.000000
1.000000 0.059950 1.000000
0.049950 0.049950 1.000000
1.960050 1.960050 0.039950
1.000000 1.970050 0.029950
0.019950 1.980050 0.019950
1.990050 1.000000 0.009950
1.000000 1.000000 1.999950
1.989950 1.000000 1.989950
0.020050 1.979950 1.979950
1.000000 1.969950 1.969950
1.959950 1.959950 1.959950
CELLS 0 0
CELL_TYPES 0
POINT_DATA 26
SCALARS m double
LOOKUP_TABLE default
1.000000
1.000000
1.000000
1.000000
1.000000
1.000000
1.000000
1.000000
1.000000
1.000000
1.000000
1.000000
1.000000
1.000000
1.000000
1.000000
1.000000
1.000000
1.000000
1.000000
1.000000
1.000000
1.000000
1.000000
1.000000
1.000000
VECTORS v double
-1.000000 -1.000000 -1.000000
0.000000 -1.000000 -1.000000
1.000000 -1.000000 -1.000000
-1.000000 0.000000 -1.000000
0.000000 0.000000 -1.000000
1.000000 0.000000 -1.000000
-1.000000 1.000000 -1.000000
0.000000 1.000000 -1.000000
1.000000 1.000000 -1.000000
-1.000000 -1.000000 0.000000
0.000000 -1.000000 0.000000
1.000000 -1.000000 0.000000
-1.000000 0.000000 0.000000
1.000000 0.000000 0.000000
-1.000000 1.000000 0.000000
0.000000 1.000000 0.000000
1.000000 1.000000 0.000000
-1.000000 -1.000000 1.000000
0.000000 -1.000000 1.000000
1.000000 -1.000000 1.000000
-1.000000 0.000000 1.000000
0.000000 0.000000 1.000000
1.000000 0.000000 1.000000
-1.000000 1.000000 1.000000
0.000000 1.000000 1.000000
1.000000 1.000000 1.000000
