# vtk DataFile Version 4.0
hesp visualization file
ASCII
DATASET UNSTRUCTURED_GRID
POINTS 26 double
1.120050 1.120050 1.120050
1.000000 1.130050 1.130050
0.859950 1.140050 1.140050
1.150050 1.000000 1.150050
1.000000 1.000000 1.160050
0.829950 1.000000 1.170050
1.180050 0.819950 1.180050
1.000000 0.809950 1.190050
0.799950 0.799950 1.200050
1.210050 1.210050 1.000000
1.000000 1.220050 1.000000
0.769950 1.230050 1.000000
1.240050 1.000000 1.000000
0.749950 1.000000 1.000000
1.260050 0.739950 1.000000
1.000000 0.729950 1.000000
0.719950 0.719950 1.000000
1.290050 1.290050 0.709950
1.000000 1.300050 0.699950
0.689950 1.310050 0.689950
1.320050 1.000000 0.679950
1.000000 1.000000 0.669950
0.659950 1.000000 0.659950
1.350050 0.649950 0.649950
1.000000 0.639950 0.639950
0.629950 0.629950 0.629950
CELLS 0 0
CELL_TYPES 0
POINT_DATA 26
SCALARS m double
LOOKUP_TABLE default
1.000000
1.000000
1.000000
1.000000
1.000000
1.000000
1.000000
1.000000
1.000000
1.000000
1.000000
1.000000
1.000000
1.000000
1.000000
1.000000
1.000000
1.000000
1.000000
1.000000
1.000000
1.000000
1.000000
1.000000
1.000000
1.000000
VECTORS v double
-1.000000 -1.000000 -1.000000
0.000000 -1.000000 -1.000000
1.000000 -1.000000 -1.000000
-1.000000 0.000000 -1.000000
0.000000 0.000000 -1.000000
1.000000 0.000000 -1.000000
-1.000000 1.000000 -1.000000
0.000000 1.000000 -1.000000
1.000000 1.000000 -1.000000
-1.000000 -1.000000 0.000000
0.000000 -1.000000 0.000000
1.000000 -1.000000 0.000000
-1.000000 0.000000 0.000000
1.000000 0.000000 0.000000
-1.000000 1.000000 0.000000
0.000000 1.000000 0.000000
1.000000 1.000000 0.000000
-1.000000 -1.000000 1.000000
0.000000 -1.000000 1.000000
1.000000 -1.000000 1.000000
-1.000000 0.000000 1.000000
0.000000 0.000000 1.000000
1.000000 0.000000 1.000000
-1.000000 1.000000 1.000000
0.000000 1.000000 1.000000
1.000000 1.000000 1.000000
