# vtk DataFile Version 4.0
hesp visualization file
ASCII
DATASET UNSTRUCTURED_GRID
POINTS 26 double
1.160050 1.160050 1.160050
1.000000 1.170050 1.170050
0.819950 1.180050 1.180050
1.190050 1.000000 1.190050
1.000000 1.000000 1.200050
0.789950 1.000000 1.210050
1.220050 0.779950 1.220050
1.000000 0.769950 1.230050
0.759950 0.759950 1.240050
1.250050 1.250050 1.000000
1.000000 1.260050 1.000000
0.729950 1.270050 1.000000
1.280050 1.000000 1.000000
0.709950 1.000000 1.000000
1.300050 0.699950 1.000000
1.000000 0.689950 1.000000
0.679950 0.679950 1.000000
1.330050 1.330050 0.669950
1.000000 1.340050 0.659950
0.649950 1.350050 0.649950
1.360050 1.000000 0.639950
1.000000 1.000000 0.629950
0.619950 1.000000 0.619950
1.390050 0.609950 0.609950
1.000000 0.599950 0.599950
0.589950 0.589950 0.589950
CELLS 0 0
CELL_TYPES 0
POINT_DATA 26
SCALARS m double
LOOKUP_TABLE default
1.000000
1.000000
1.000000
1.000000
1.000000
1.000000
1.000000
1.000000
1.000000
1.000000
1.000000
1.000000
1.000000
1.000000
1.000000
1.000000
1.000000
1.000000
1.000000
1.000000
1.000000
1.000000
1.000000
1.000000
1.000000
1.000000
VECTORS v double
-1.000000 -1.000000 -1.000000
0.000000 -1.000000 -1.000000
1.000000 -1.000000 -1.000000
-1.000000 0.000000 -1.000000
0.000000 0.000000 -1.000000
1.000000 0.000000 -1.000000
-1.000000 1.000000 -1.000000
0.000000 1.000000 -1.000000
1.000000 1.000000 -1.000000
-1.000000 -1.000000 0.000000
0.000000 -1.000000 0.000000
1.000000 -1.000000 0.000000
-1.000000 0.000000 0.000000
1.000000 0.000000 0.000000
-1.000000 1.000000 0.000000
0.000000 1.000000 0.000000
1.000000 1.000000 0.000000
-1.000000 -1.000000 1.000000
0.000000 -1.000000 1.000000
1.000000 -1.000000 1.000000
-1.000000 0.000000 1.000000
0.000000 0.000000 1.000000
1.000000 0.000000 1.000000
-1.000000 1.000000 1.000000
0.000000 1.000000 1.000000
1.000000 1.000000 1.000000
