# vtk DataFile Version 4.0
hesp visualization file
ASCII
DATASET UNSTRUCTURED_GRID
POINTS 26 double
0.460050 0.460050 0.460050
1.000000 0.470050 0.470050
1.519950 0.480050 0.480050
0.490050 1.000000 0.490050
1.000000 1.000000 0.500050
1.489950 1.000000 0.510050
0.520050 1.479950 0.520050
1.000000 1.469950 0.530050
1.459950 1.459950 0.540050
0.550050 0.550050 1.000000
1.000000 0.560050 1.000000
1.429950 0.570050 1.000000
0.580050 1.000000 1.000000
1.409950 1.000000 1.000000
0.600050 1.399950 1.000000
1.000000 1.389950 1.000000
1.379950 1.379950 1.000000
0.630050 0.630050 1.369950
1.000000 0.640050 1.359950
1.349950 0.650050 1.349950
0.660050 1.000000 1.339950
1.000000 1.000000 1.329950
1.319950 1.000000 1.319950
0.690050 1.309950 1.309950
1.000000 1.299950 1.299950
1.289950 1.289950 1.289950
CELLS 0 0
CELL_TYPES 0
POINT_DATA 26
SCALARS m double
LOOKUP_TABLE default
1.000000
1.000000
1.000000
1.000000
1.000000
1.000000
1.000000
1.000000
1.000000
1.000000
1.000000
1.000000
1.000000
1.000000
1.000000
1.000000
1.000000
1.000000
1.000000
1.000000
1.000000
1.000000
1.000000
1.000000
1.000000
1.000000
VECTORS v double
-1.000000 -1.000000 -1.000000
0.000000 -1.000000 -1.000000
1.000000 -1.000000 -1.000000
-1.000000 0.000000 -1.000000
0.000000 0.000000 -1.000000
1.000000 0.000000 -1.000000
-1.000000 1.000000 -1.000000
0.000000 1.000000 -1.000000
1.000000 1.000000 -1.000000
-1.000000 -1.000000 0.000000
0.000000 -1.000000 0.000000
1.000000 -1.000000 0.000000
-1.000000 0.000000 0.000000
1.000000 0.000000 0.000000
-1.000000 1.000000 0.000000
0.000000 1.000000 0.000000
1.000000 1.000000 0.000000
-1.000000 -1.000000 1.000000
0.000000 -1.000000 1.000000
1.000000 -1.000000 1.000000
-1.000000 0.000000 1.000000
0.000000 0.000000 1.000000
1.000000 0.000000 1.000000
-1.000000 1.000000 1.000000
0.000000 1.000000 1.000000
1.000000 1.000000 1.000000
