# vtk DataFile Version 4.0
hesp visualization file
ASCII
DATASET UNSTRUCTURED_GRID
POINTS 26 double
1.830050 1.830050 1.830050
1.000000 1.840050 1.840050
0.149950 1.850050 1.850050
1.860050 1.000000 1.860050
1.000000 1.000000 1.870050
0.119950 1.000000 1.880050
1.890050 0.109950 1.890050
1.000000 0.099950 1.900050
0.089950 0.089950 1.910050
1.920050 1.920050 1.000000
1.000000 1.930050 1.000000
0.059950 1.940050 1.000000
1.950050 1.000000 1.000000
0.039950 1.000000 1.000000
1.970050 0.029950 1.000000
1.000000 0.019950 1.000000
0.009950 0.009950 1.000000
0.000050 0.000050 1.999950
1.000000 0.010050 1.989950
1.979950 0.020050 1.979950
0.030050 1.000000 1.969950
1.000000 1.000000 1.959950
1.949950 1.000000 1.949950
0.060050 1.939950 1.939950
1.000000 1.929950 1.929950
1.919950 1.919950 1.919950
CELLS 0 0
CELL_TYPES 0
POINT_DATA 26
SCALARS m double
LOOKUP_TABLE default
1.000000
1.000000
1.000000
1.000000
1.000000
1.000000
1.000000
1.000000
1.000000
1.000000
1.000000
1.000000
1.000000
1.000000
1.000000
1.000000
1.000000
1.000000
1.000000
1.000000
1.000000
1.000000
1.000000
1.000000
1.000000
1.000000
VECTORS v double
-1.000000 -1.000000 -1.000000
0.000000 -1.000000 -1.000000
1.000000 -1.000000 -1.000000
-1.000000 0.000000 -1.000000
0.000000 0.000000 -1.000000
1.000000 0.000000 -1.000000
-1.000000 1.000000 -1.000000
0.000000 1.000000 -1.000000
1.000000 1.000000 -1.000000
-1.000000 -1.000000 0.000000
0.000000 -1.000000 0.000000
1.000000 -1.000000 0.000000
-1.000000 0.000000 0.000000
1.000000 0.000000 0.000000
-1.000000 1.000000 0.000000
0.000000 1.000000 0.000000
1.000000 1.000000 0.000000
-1.000000 -1.000000 1.000000
0.000000 -1.000000 1.000000
1.000000 -1.000000 1.000000
-1.000000 0.000000 1.000000
0.000000 0.000000 1.000000
1.000000 0.000000 1.000000
-1.000000 1.000000 1.000000
0.000000 1.000000 1.000000
1.000000 1.000000 1.000000
