# vtk DataFile Version 4.0
hesp visualization file
ASCII
DATASET UNSTRUCTURED_GRID
POINTS 26 double
1.220050 1.220050 1.220050
1.000000 1.230050 1.230050
0.759950 1.240050 1.240050
1.250050 1.000000 1.250050
1.000000 1.000000 1.260050
0.729950 1.000000 1.270050
1.280050 0.719950 1.280050
1.000000 0.709950 1.290050
0.699950 0.699950 1.300050
1.310050 1.310050 1.000000
1.000000 1.320050 1.000000
0.669950 1.330050 1.000000
1.340050 1.000000 1.000000
0.649950 1.000000 1.000000
1.360050 0.639950 1.000000
1.000000 0.629950 1.000000
0.619950 0.619950 1.000000
1.390050 1.390050 0.609950
1.000000 1.400050 0.599950
0.589950 1.410050 0.589950
1.420050 1.000000 0.579950
1.000000 1.000000 0.569950
0.559950 1.000000 0.559950
1.450050 0.549950 0.549950
1.000000 0.539950 0.539950
0.529950 0.529950 0.529950
CELLS 0 0
CELL_TYPES 0
POINT_DATA 26
SCALARS m double
LOOKUP_TABLE default
1.000000
1.000000
1.000000
1.000000
1.000000
1.000000
1.000000
1.000000
1.000000
1.000000
1.000000
1.000000
1.000000
1.000000
1.000000
1.000000
1.000000
1.000000
1.000000
1.000000
1.000000
1.000000
1.000000
1.000000
1.000000
1.000000
VECTORS v double
-1.000000 -1.000000 -1.000000
0.000000 -1.000000 -1.000000
1.000000 -1.000000 -1.000000
-1.000000 0.000000 -1.000000
0.000000 0.000000 -1.000000
1.000000 0.000000 -1.000000
-1.000000 1.000000 -1.000000
0.000000 1.000000 -1.000000
1.000000 1.000000 -1.000000
-1.000000 -1.000000 0.000000
0.000000 -1.000000 0.000000
1.000000 -1.000000 0.000000
-1.000000 0.000000 0.000000
1.000000 0.000000 0.000000
-1.000000 1.000000 0.000000
0.000000 1.000000 0.000000
1.000000 1.000000 0.000000
-1.000000 -1.000000 1.000000
0.000000 -1.000000 1.000000
1.000000 -1.000000 1.000000
-1.000000 0.000000 1.000000
0.000000 0.000000 1.000000
1.000000 0.000000 1.000000
-1.000000 1.000000 1.000000
0.000000 1.000000 1.000000
1.000000 1.000000 1.000000
