# vtk DataFile Version 4.0
hesp visualization file
ASCII
DATASET UNSTRUCTURED_GRID
POINTS 26 double
1.570050 1.570050 1.570050
1.000000 1.580050 1.580050
0.409950 1.590050 1.590050
1.600050 1.000000 1.600050
1.000000 1.000000 1.610050
0.379950 1.000000 1.620050
1.630050 0.369950 1.630050
1.000000 0.359950 1.640050
0.349950 0.349950 1.650050
1.660050 1.660050 1.000000
1.000000 1.670050 1.000000
0.319950 1.680050 1.000000
1.690050 1.000000 1.000000
0.299950 1.000000 1.000000
1.710050 0.289950 1.000000
1.000000 0.279950 1.000000
0.269950 0.269950 1.000000
1.740050 1.740050 0.259950
1.000000 1.750050 0.249950
0.239950 1.760050 0.239950
1.770050 1.000000 0.229950
1.000000 1.000000 0.219950
0.209950 1.000000 0.209950
1.800050 0.199950 0.199950
1.000000 0.189950 0.189950
0.179950 0.179950 0.179950
CELLS 0 0
CELL_TYPES 0
POINT_DATA 26
SCALARS m double
LOOKUP_TABLE default
1.000000
1.000000
1.000000
1.000000
1.000000
1.000000
1.000000
1.000000
1.000000
1.000000
1.000000
1.000000
1.000000
1.000000
1.000000
1.000000
1.000000
1.000000
1.000000
1.000000
1.000000
1.000000
1.000000
1.000000
1.000000
1.000000
VECTORS v double
-1.000000 -1.000000 -1.000000
0.000000 -1.000000 -1.000000
1.000000 -1.000000 -1.000000
-1.000000 0.000000 -1.000000
0.000000 0.000000 -1.000000
1.000000 0.000000 -1.000000
-1.000000 1.000000 -1.000000
0.000000 1.000000 -1.000000
1.000000 1.000000 -1.000000
-1.000000 -1.000000 0.000000
0.000000 -1.000000 0.000000
1.000000 -1.000000 0.000000
-1.000000 0.000000 0.000000
1.000000 0.000000 0.000000
-1.000000 1.000000 0.000000
0.000000 1.000000 0.000000
1.000000 1.000000 0.000000
-1.000000 -1.000000 1.000000
0.000000 -1.000000 1.000000
1.000000 -1.000000 1.000000
-1.000000 0.000000 1.000000
0.000000 0.000000 1.000000
1.000000 0.000000 1.000000
-1.000000 1.000000 1.000000
0.000000 1.000000 1.000000
1.000000 1.000000 1.000000
