# vtk DataFile Version 4.0
hesp visualization file
ASCII
DATASET UNSTRUCTURED_GRID
POINTS 26 double
0.180050 0.180050 0.180050
1.000000 0.190050 0.190050
1.799950 0.200050 0.200050
0.210050 1.000000 0.210050
1.000000 1.000000 0.220050
1.769950 1.000000 0.230050
0.240050 1.759950 0.240050
1.000000 1.749950 0.250050
1.739950 1.739950 0.260050
0.270050 0.270050 1.000000
1.000000 0.280050 1.000000
1.709950 0.290050 1.000000
0.300050 1.000000 1.000000
1.689950 1.000000 1.000000
0.320050 1.679950 1.000000
1.000000 1.669950 1.000000
1.659950 1.659950 1.000000
0.350050 0.350050 1.649950
1.000000 0.360050 1.639950
1.629950 0.370050 1.629950
0.380050 1.000000 1.619950
1.000000 1.000000 1.609950
1.599950 1.000000 1.599950
0.410050 1.589950 1.589950
1.000000 1.579950 1.579950
1.569950 1.569950 1.569950
CELLS 0 0
CELL_TYPES 0
POINT_DATA 26
SCALARS m double
LOOKUP_TABLE default
1.000000
1.000000
1.000000
1.000000
1.000000
1.000000
1.000000
1.000000
1.000000
1.000000
1.000000
1.000000
1.000000
1.000000
1.000000
1.000000
1.000000
1.000000
1.000000
1.000000
1.000000
1.000000
1.000000
1.000000
1.000000
1.000000
VECTORS v double
-1.000000 -1.000000 -1.000000
0.000000 -1.000000 -1.000000
1.000000 -1.000000 -1.000000
-1.000000 0.000000 -1.000000
0.000000 0.000000 -1.000000
1.000000 0.000000 -1.000000
-1.000000 1.000000 -1.000000
0.000000 1.000000 -1.000000
1.000000 1.000000 -1.000000
-1.000000 -1.000000 0.000000
0.000000 -1.000000 0.000000
1.000000 -1.000000 0.000000
-1.000000 0.000000 0.000000
1.000000 0.000000 0.000000
-1.000000 1.000000 0.000000
0.000000 1.000000 0.000000
1.000000 1.000000 0.000000
-1.000000 -1.000000 1.000000
0.000000 -1.000000 1.000000
1.000000 -1.000000 1.000000
-1.000000 0.000000 1.000000
0.000000 0.000000 1.000000
1.000000 0.000000 1.000000
-1.000000 1.000000 1.000000
0.000000 1.000000 1.000000
1.000000 1.000000 1.000000
