# vtk DataFile Version 4.0
hesp visualization file
ASCII
DATASET UNSTRUCTURED_GRID
POINTS 26 double
0.050050 0.050050 0.050050
1.000000 0.060050 0.060050
1.929950 0.070050 0.070050
0.080050 1.000000 0.080050
1.000000 1.000000 0.090050
1.899950 1.000000 0.100050
0.110050 1.889950 0.110050
1.000000 1.879950 0.120050
1.869950 1.869950 0.130050
0.140050 0.140050 1.000000
1.000000 0.150050 1.000000
1.839950 0.160050 1.000000
0.170050 1.000000 1.000000
1.819950 1.000000 1.000000
0.190050 1.809950 1.000000
1.000000 1.799950 1.000000
1.789950 1.789950 1.000000
0.220050 0.220050 1.779950
1.000000 0.230050 1.769950
1.759950 0.240050 1.759950
0.250050 1.000000 1.749950
1.000000 1.000000 1.739950
1.729950 1.000000 1.729950
0.280050 1.719950 1.719950
1.000000 1.709950 1.709950
1.699950 1.699950 1.699950
CELLS 0 0
CELL_TYPES 0
POINT_DATA 26
SCALARS m double
LOOKUP_TABLE default
1.000000
1.000000
1.000000
1.000000
1.000000
1.000000
1.000000
1.000000
1.000000
1.000000
1.000000
1.000000
1.000000
1.000000
1.000000
1.000000
1.000000
1.000000
1.000000
1.000000
1.000000
1.000000
1.000000
1.000000
1.000000
1.000000
VECTORS v double
-1.000000 -1.000000 -1.000000
0.000000 -1.000000 -1.000000
1.000000 -1.000000 -1.000000
-1.000000 0.000000 -1.000000
0.000000 0.000000 -1.000000
1.000000 0.000000 -1.000000
-1.000000 1.000000 -1.000000
0.000000 1.000000 -1.000000
1.000000 1.000000 -1.000000
-1.000000 -1.000000 0.000000
0.000000 -1.000000 0.000000
1.000000 -1.000000 0.000000
-1.000000 0.000000 0.000000
1.000000 0.000000 0.000000
-1.000000 1.000000 0.000000
0.000000 1.000000 0.000000
1.000000 1.000000 0.000000
-1.000000 -1.000000 1.000000
0.000000 -1.000000 1.000000
1.000000 -1.000000 1.000000
-1.000000 0.000000 1.000000
0.000000 0.000000 1.000000
1.000000 0.000000 1.000000
-1.000000 1.000000 1.000000
0.000000 1.000000 1.000000
1.000000 1.000000 1.000000
