# vtk DataFile Version 4.0
hesp visualization file
ASCII
DATASET UNSTRUCTURED_GRID
POINTS 26 double
1.670050 1.670050 1.670050
1.000000 1.680050 1.680050
0.309950 1.690050 1.690050
1.700050 1.000000 1.700050
1.000000 1.000000 1.710050
0.279950 1.000000 1.720050
1.730050 0.269950 1.730050
1.000000 0.259950 1.740050
0.249950 0.249950 1.750050
1.760050 1.760050 1.000000
1.000000 1.770050 1.000000
0.219950 1.780050 1.000000
1.790050 1.000000 1.000000
0.199950 1.000000 1.000000
1.810050 0.189950 1.000000
1.000000 0.179950 1.000000
0.169950 0.169950 1.000000
1.840050 1.840050 0.159950
1.000000 1.850050 0.149950
0.139950 1.860050 0.139950
1.870050 1.000000 0.129950
1.000000 1.000000 0.119950
0.109950 1.000000 0.109950
1.900050 0.099950 0.099950
1.000000 0.089950 0.089950
0.079950 0.079950 0.079950
CELLS 0 0
CELL_TYPES 0
POINT_DATA 26
SCALARS m double
LOOKUP_TABLE default
1.000000
1.000000
1.000000
1.000000
1.000000
1.000000
1.000000
1.000000
1.000000
1.000000
1.000000
1.000000
1.000000
1.000000
1.000000
1.000000
1.000000
1.000000
1.000000
1.000000
1.000000
1.000000
1.000000
1.000000
1.000000
1.000000
VECTORS v double
-1.000000 -1.000000 -1.000000
0.000000 -1.000000 -1.000000
1.000000 -1.000000 -1.000000
-1.000000 0.000000 -1.000000
0.000000 0.000000 -1.000000
1.000000 0.000000 -1.000000
-1.000000 1.000000 -1.000000
0.000000 1.000000 -1.000000
1.000000 1.000000 -1.000000
-1.000000 -1.000000 0.000000
0.000000 -1.000000 0.000000
1.000000 -1.000000 0.000000
-1.000000 0.000000 0.000000
1.000000 0.000000 0.000000
-1.000000 1.000000 0.000000
0.000000 1.000000 0.000000
1.000000 1.000000 0.000000
-1.000000 -1.000000 1.000000
0.000000 -1.000000 1.000000
1.000000 -1.000000 1.000000
-1.000000 0.000000 1.000000
0.000000 0.000000 1.000000
1.000000 0.000000 1.000000
-1.000000 1.000000 1.000000
0.000000 1.000000 1.000000
1.000000 1.000000 1.000000
