# vtk DataFile Version 4.0
hesp visualization file
ASCII
DATASET UNSTRUCTURED_GRID
POINTS 26 double
1.040050 1.040050 1.040050
1.000000 1.050050 1.050050
0.939950 1.060050 1.060050
1.070050 1.000000 1.070050
1.000000 1.000000 1.080050
0.909950 1.000000 1.090050
1.100050 0.899950 1.100050
1.000000 0.889950 1.110050
0.879950 0.879950 1.120050
1.130050 1.130050 1.000000
1.000000 1.140050 1.000000
0.849950 1.150050 1.000000
1.160050 1.000000 1.000000
0.829950 1.000000 1.000000
1.180050 0.819950 1.000000
1.000000 0.809950 1.000000
0.799950 0.799950 1.000000
1.210050 1.210050 0.789950
1.000000 1.220050 0.779950
0.769950 1.230050 0.769950
1.240050 1.000000 0.759950
1.000000 1.000000 0.749950
0.739950 1.000000 0.739950
1.270050 0.729950 0.729950
1.000000 0.719950 0.719950
0.709950 0.709950 0.709950
CELLS 0 0
CELL_TYPES 0
POINT_DATA 26
SCALARS m double
LOOKUP_TABLE default
1.000000
1.000000
1.000000
1.000000
1.000000
1.000000
1.000000
1.000000
1.000000
1.000000
1.000000
1.000000
1.000000
1.000000
1.000000
1.000000
1.000000
1.000000
1.000000
1.000000
1.000000
1.000000
1.000000
1.000000
1.000000
1.000000
VECTORS v double
-1.000000 -1.000000 -1.000000
0.000000 -1.000000 -1.000000
1.000000 -1.000000 -1.000000
-1.000000 0.000000 -1.000000
0.000000 0.000000 -1.000000
1.000000 0.000000 -1.000000
-1.000000 1.000000 -1.000000
0.000000 1.000000 -1.000000
1.000000 1.000000 -1.000000
-1.000000 -1.000000 0.000000
0.000000 -1.000000 0.000000
1.000000 -1.000000 0.000000
-1.000000 0.000000 0.000000
1.000000 0.000000 0.000000
-1.000000 1.000000 0.000000
0.000000 1.000000 0.000000
1.000000 1.000000 0.000000
-1.000000 -1.000000 1.000000
0.000000 -1.000000 1.000000
1.000000 -1.000000 1.000000
-1.000000 0.000000 1.000000
0.000000 0.000000 1.000000
1.000000 0.000000 1.000000
-1.000000 1.000000 1.000000
0.000000 1.000000 1.000000
1.000000 1.000000 1.000000
