# vtk DataFile Version 4.0
hesp visualization file
ASCII
DATASET UNSTRUCTURED_GRID
POINTS 26 double
1.130050 1.130050 1.130050
1.000000 1.140050 1.140050
0.849950 1.150050 1.150050
1.160050 1.000000 1.160050
1.000000 1.000000 1.170050
0.819950 1.000000 1.180050
1.190050 0.809950 1.190050
1.000000 0.799950 1.200050
0.789950 0.789950 1.210050
1.220050 1.220050 1.000000
1.000000 1.230050 1.000000
0.759950 1.240050 1.000000
1.250050 1.000000 1.000000
0.739950 1.000000 1.000000
1.270050 0.729950 1.000000
1.000000 0.719950 1.000000
0.709950 0.709950 1.000000
1.300050 1.300050 0.699950
1.000000 1.310050 0.689950
0.679950 1.320050 0.679950
1.330050 1.000000 0.669950
1.000000 1.000000 0.659950
0.649950 1.000000 0.649950
1.360050 0.639950 0.639950
1.000000 0.629950 0.629950
0.619950 0.619950 0.619950
CELLS 0 0
CELL_TYPES 0
POINT_DATA 26
SCALARS m double
LOOKUP_TABLE default
1.000000
1.000000
1.000000
1.000000
1.000000
1.000000
1.000000
1.000000
1.000000
1.000000
1.000000
1.000000
1.000000
1.000000
1.000000
1.000000
1.000000
1.000000
1.000000
1.000000
1.000000
1.000000
1.000000
1.000000
1.000000
1.000000
VECTORS v double
-1.000000 -1.000000 -1.000000
0.000000 -1.000000 -1.000000
1.000000 -1.000000 -1.000000
-1.000000 0.000000 -1.000000
0.000000 0.000000 -1.000000
1.000000 0.000000 -1.000000
-1.000000 1.000000 -1.000000
0.000000 1.000000 -1.000000
1.000000 1.000000 -1.000000
-1.000000 -1.000000 0.000000
0.000000 -1.000000 0.000000
1.000000 -1.000000 0.000000
-1.000000 0.000000 0.000000
1.000000 0.000000 0.000000
-1.000000 1.000000 0.000000
0.000000 1.000000 0.000000
1.000000 1.000000 0.000000
-1.000000 -1.000000 1.000000
0.000000 -1.000000 1.000000
1.000000 -1.000000 1.000000
-1.000000 0.000000 1.000000
0.000000 0.000000 1.000000
1.000000 0.000000 1.000000
-1.000000 1.000000 1.000000
0.000000 1.000000 1.000000
1.000000 1.000000 1.000000
