# vtk DataFile Version 4.0
hesp visualization file
ASCII
DATASET UNSTRUCTURED_GRID
POINTS 26 double
0.800050 0.800050 0.800050
1.000000 0.810050 0.810050
1.179950 0.820050 0.820050
0.830050 1.000000 0.830050
1.000000 1.000000 0.840050
1.149950 1.000000 0.850050
0.860050 1.139950 0.860050
1.000000 1.129950 0.870050
1.119950 1.119950 0.880050
0.890050 0.890050 1.000000
1.000000 0.900050 1.000000
1.089950 0.910050 1.000000
0.920050 1.000000 1.000000
1.069950 1.000000 1.000000
0.940050 1.059950 1.000000
1.000000 1.049950 1.000000
1.039950 1.039950 1.000000
0.970050 0.970050 1.029950
1.000000 0.980050 1.019950
1.009950 0.990050 1.009950
1.000050 1.000000 0.999950
1.000000 1.000000 0.989950
0.979950 1.000000 0.979950
1.030050 0.969950 0.969950
1.000000 0.959950 0.959950
0.949950 0.949950 0.949950
CELLS 0 0
CELL_TYPES 0
POINT_DATA 26
SCALARS m double
LOOKUP_TABLE default
1.000000
1.000000
1.000000
1.000000
1.000000
1.000000
1.000000
1.000000
1.000000
1.000000
1.000000
1.000000
1.000000
1.000000
1.000000
1.000000
1.000000
1.000000
1.000000
1.000000
1.000000
1.000000
1.000000
1.000000
1.000000
1.000000
VECTORS v double
-1.000000 -1.000000 -1.000000
0.000000 -1.000000 -1.000000
1.000000 -1.000000 -1.000000
-1.000000 0.000000 -1.000000
0.000000 0.000000 -1.000000
1.000000 0.000000 -1.000000
-1.000000 1.000000 -1.000000
0.000000 1.000000 -1.000000
1.000000 1.000000 -1.000000
-1.000000 -1.000000 0.000000
0.000000 -1.000000 0.000000
1.000000 -1.000000 0.000000
-1.000000 0.000000 0.000000
1.000000 0.000000 0.000000
-1.000000 1.000000 0.000000
0.000000 1.000000 0.000000
1.000000 1.000000 0.000000
-1.000000 -1.000000 1.000000
0.000000 -1.000000 1.000000
1.000000 -1.000000 1.000000
-1.000000 0.000000 1.000000
0.000000 0.000000 1.000000
1.000000 0.000000 1.000000
-1.000000 1.000000 1.000000
0.000000 1.000000 1.000000
1.000000 1.000000 1.000000
