# vtk DataFile Version 4.0
hesp visualization file
ASCII
DATASET UNSTRUCTURED_GRID
POINTS 26 double
0.060050 0.060050 0.060050
1.000000 0.070050 0.070050
1.919950 0.080050 0.080050
0.090050 1.000000 0.090050
1.000000 1.000000 0.100050
1.889950 1.000000 0.110050
0.120050 1.879950 0.120050
1.000000 1.869950 0.130050
1.859950 1.859950 0.140050
0.150050 0.150050 1.000000
1.000000 0.160050 1.000000
1.829950 0.170050 1.000000
0.180050 1.000000 1.000000
1.809950 1.000000 1.000000
0.200050 1.799950 1.000000
1.000000 1.789950 1.000000
1.779950 1.779950 1.000000
0.230050 0.230050 1.769950
1.000000 0.240050 1.759950
1.749950 0.250050 1.749950
0.260050 1.000000 1.739950
1.000000 1.000000 1.729950
1.719950 1.000000 1.719950
0.290050 1.709950 1.709950
1.000000 1.699950 1.699950
1.689950 1.689950 1.689950
CELLS 0 0
CELL_TYPES 0
POINT_DATA 26
SCALARS m double
LOOKUP_TABLE default
1.000000
1.000000
1.000000
1.000000
1.000000
1.000000
1.000000
1.000000
1.000000
1.000000
1.000000
1.000000
1.000000
1.000000
1.000000
1.000000
1.000000
1.000000
1.000000
1.000000
1.000000
1.000000
1.000000
1.000000
1.000000
1.000000
VECTORS v double
-1.000000 -1.000000 -1.000000
0.000000 -1.000000 -1.000000
1.000000 -1.000000 -1.000000
-1.000000 0.000000 -1.000000
0.000000 0.000000 -1.000000
1.000000 0.000000 -1.000000
-1.000000 1.000000 -1.000000
0.000000 1.000000 -1.000000
1.000000 1.000000 -1.000000
-1.000000 -1.000000 0.000000
0.000000 -1.000000 0.000000
1.000000 -1.000000 0.000000
-1.000000 0.000000 0.000000
1.000000 0.000000 0.000000
-1.000000 1.000000 0.000000
0.000000 1.000000 0.000000
1.000000 1.000000 0.000000
-1.000000 -1.000000 1.000000
0.000000 -1.000000 1.000000
1.000000 -1.000000 1.000000
-1.000000 0.000000 1.000000
0.000000 0.000000 1.000000
1.000000 0.000000 1.000000
-1.000000 1.000000 1.000000
0.000000 1.000000 1.000000
1.000000 1.000000 1.000000
