# vtk DataFile Version 4.0
hesp visualization file
ASCII
DATASET UNSTRUCTURED_GRID
POINTS 26 double
0.670050 0.670050 0.670050
1.000000 0.680050 0.680050
1.309950 0.690050 0.690050
0.700050 1.000000 0.700050
1.000000 1.000000 0.710050
1.279950 1.000000 0.720050
0.730050 1.269950 0.730050
1.000000 1.259950 0.740050
1.249950 1.249950 0.750050
0.760050 0.760050 1.000000
1.000000 0.770050 1.000000
1.219950 0.780050 1.000000
0.790050 1.000000 1.000000
1.199950 1.000000 1.000000
0.810050 1.189950 1.000000
1.000000 1.179950 1.000000
1.169950 1.169950 1.000000
0.840050 0.840050 1.159950
1.000000 0.850050 1.149950
1.139950 0.860050 1.139950
0.870050 1.000000 1.129950
1.000000 1.000000 1.119950
1.109950 1.000000 1.109950
0.900050 1.099950 1.099950
1.000000 1.089950 1.089950
1.079950 1.079950 1.079950
CELLS 0 0
CELL_TYPES 0
POINT_DATA 26
SCALARS m double
LOOKUP_TABLE default
1.000000
1.000000
1.000000
1.000000
1.000000
1.000000
1.000000
1.000000
1.000000
1.000000
1.000000
1.000000
1.000000
1.000000
1.000000
1.000000
1.000000
1.000000
1.000000
1.000000
1.000000
1.000000
1.000000
1.000000
1.000000
1.000000
VECTORS v double
-1.000000 -1.000000 -1.000000
0.000000 -1.000000 -1.000000
1.000000 -1.000000 -1.000000
-1.000000 0.000000 -1.000000
0.000000 0.000000 -1.000000
1.000000 0.000000 -1.000000
-1.000000 1.000000 -1.000000
0.000000 1.000000 -1.000000
1.000000 1.000000 -1.000000
-1.000000 -1.000000 0.000000
0.000000 -1.000000 0.000000
1.000000 -1.000000 0.000000
-1.000000 0.000000 0.000000
1.000000 0.000000 0.000000
-1.000000 1.000000 0.000000
0.000000 1.000000 0.000000
1.000000 1.000000 0.000000
-1.000000 -1.000000 1.000000
0.000000 -1.000000 1.000000
1.000000 -1.000000 1.000000
-1.000000 0.000000 1.000000
0.000000 0.000000 1.000000
1.000000 0.000000 1.000000
-1.000000 1.000000 1.000000
0.000000 1.000000 1.000000
1.000000 1.000000 1.000000
