# vtk DataFile Version 4.0
hesp visualization file
ASCII
DATASET UNSTRUCTURED_GRID
POINTS 26 double
1.370050 1.370050 1.370050
1.000000 1.380050 1.380050
0.609950 1.390050 1.390050
1.400050 1.000000 1.400050
1.000000 1.000000 1.410050
0.579950 1.000000 1.420050
1.430050 0.569950 1.430050
1.000000 0.559950 1.440050
0.549950 0.549950 1.450050
1.460050 1.460050 1.000000
1.000000 1.470050 1.000000
0.519950 1.480050 1.000000
1.490050 1.000000 1.000000
0.499950 1.000000 1.000000
1.510050 0.489950 1.000000
1.000000 0.479950 1.000000
0.469950 0.469950 1.000000
1.540050 1.540050 0.459950
1.000000 1.550050 0.449950
0.439950 1.560050 0.439950
1.570050 1.000000 0.429950
1.000000 1.000000 0.419950
0.409950 1.000000 0.409950
1.600050 0.399950 0.399950
1.000000 0.389950 0.389950
0.379950 0.379950 0.379950
CELLS 0 0
CELL_TYPES 0
POINT_DATA 26
SCALARS m double
LOOKUP_TABLE default
1.000000
1.000000
1.000000
1.000000
1.000000
1.000000
1.000000
1.000000
1.000000
1.000000
1.000000
1.000000
1.000000
1.000000
1.000000
1.000000
1.000000
1.000000
1.000000
1.000000
1.000000
1.000000
1.000000
1.000000
1.000000
1.000000
VECTORS v double
-1.000000 -1.000000 -1.000000
0.000000 -1.000000 -1.000000
1.000000 -1.000000 -1.000000
-1.000000 0.000000 -1.000000
0.000000 0.000000 -1.000000
1.000000 0.000000 -1.000000
-1.000000 1.000000 -1.000000
0.000000 1.000000 -1.000000
1.000000 1.000000 -1.000000
-1.000000 -1.000000 0.000000
0.000000 -1.000000 0.000000
1.000000 -1.000000 0.000000
-1.000000 0.000000 0.000000
1.000000 0.000000 0.000000
-1.000000 1.000000 0.000000
0.000000 1.000000 0.000000
1.000000 1.000000 0.000000
-1.000000 -1.000000 1.000000
0.000000 -1.000000 1.000000
1.000000 -1.000000 1.000000
-1.000000 0.000000 1.000000
0.000000 0.000000 1.000000
1.000000 0.000000 1.000000
-1.000000 1.000000 1.000000
0.000000 1.000000 1.000000
1.000000 1.000000 1.000000
