# vtk DataFile Version 4.0
hesp visualization file
ASCII
DATASET UNSTRUCTURED_GRID
POINTS 2 double
0.107828 0.000000 0.000000
1.192172 0.000000 0.000000
CELLS 0 0
CELL_TYPES 0
POINT_DATA 2
SCALARS m double
LOOKUP_TABLE default
1.000000
1.000000
VECTORS v double
0.538200 0.000000 0.000000
-0.538200 0.000000 0.000000
