# vtk DataFile Version 4.0
hesp visualization file
ASCII
DATASET UNSTRUCTURED_GRID
POINTS 1250 double
34.535335 1.954519 4.000000
30.230881 0.099083 4.000000
34.672343 4.880789 4.000000
33.341540 7.638593 4.000000
31.664330 5.305210 4.000000
30.636288 11.228815 4.000000
32.846147 11.734137 4.000000
31.844416 11.441079 4.000000
30.074529 12.858909 4.000000
32.266360 11.479458 4.000000
31.521340 12.372617 4.000000
30.727584 13.622798 4.000000
30.745405 14.591633 4.000000
30.725072 15.541191 4.000000
31.657559 16.897169 4.000000
29.849361 17.122667 4.000000
31.181729 19.602338 4.000000
30.579114 17.465651 4.000000
30.071843 21.408970 4.000000
30.425150 19.201196 4.000000
33.737745 23.954823 4.000000
31.327585 28.224128 4.000000
34.017657 23.792595 4.000000
32.501130 30.029128 4.000000
31.752717 27.860391 4.000000
30.916701 -11.938520 4.000000
33.065783 0.435436 4.000000
32.646542 -3.577827 4.000000
30.464909 3.250086 4.000000
30.175406 6.964434 4.000000
30.633395 6.773496 4.000000
30.113139 8.006033 4.000000
31.435755 11.804519 4.000000
32.807082 13.184351 4.000000
31.090274 11.949708 4.000000
31.151318 13.113354 4.000000
31.733415 13.005791 4.000000
31.857112 14.609756 4.000000
31.812324 15.978954 4.000000
32.389568 16.174535 4.000000
31.204017 17.596022 4.000000
32.879153 17.543318 4.000000
32.519055 16.834814 4.000000
31.857516 19.043893 4.000000
30.909438 23.991169 4.000000
31.112661 25.633704 4.000000
31.849192 23.670547 4.000000
32.654897 32.754721 4.000000
31.665789 26.308847 4.000000
30.916701 41.122533 4.000000
31.869667 -3.083321 4.000000
33.728293 3.446757 4.000000
33.128854 3.274113 4.000000
30.813362 8.400676 4.000000
34.883979 5.134984 4.000000
30.928904 8.923203 4.000000
33.244055 9.998533 4.000000
30.253935 5.915844 4.000000
30.281727 9.675086 4.000000
33.820348 12.325636 4.000000
33.776761 12.870892 4.000000
30.582191 14.134076 4.000000
33.254441 14.163497 4.000000
33.109612 14.924066 4.000000
31.955320 15.679750 4.000000
32.727582 17.908089 4.000000
30.893861 19.218787 4.000000
32.455841 20.778513 4.000000
33.976976 18.061218 4.000000
31.270651 18.474760 4.000000
31.482139 25.544738 4.000000
33.424829 20.019561 4.000000
31.684826 22.280483 4.000000
33.851796 26.245990 4.000000
31.872105 32.260067 4.000000
31.456050 -3.071532 4.000000
32.974409 -7.020808 4.000000
31.554514 4.846951 4.000000
35.352101 2.980600 4.000000
31.096403 3.106635 4.000000
32.422610 4.246934 4.000000
30.778468 9.686836 4.000000
31.467266 10.190871 4.000000
34.194762 10.718376 4.000000
33.615939 9.457319 4.000000
34.951319 14.322726 4.000000
33.428483 14.759565 4.000000
34.078285 14.595330 4.000000
32.110591 15.896817 4.000000
34.345278 14.593490 4.000000
31.979746 17.524183 4.000000
34.990048 18.531692 4.000000
30.885016 16.688496 4.000000
30.371639 20.791088 4.000000
30.020186 19.840695 4.000000
36.092729 25.217893 4.000000
34.829281 27.385535 4.000000
30.702987 24.934664 4.000000
32.974413 36.204821 4.000000
31.454673 32.256710 4.000000
33.413706 2.078486 4.000000
30.365678 4.684650 4.000000
32.274802 -2.927567 4.000000
34.665211 7.108707 4.000000
30.380196 9.220639 4.000000
30.521131 10.064418 4.000000
32.736612 8.043243 4.000000
30.441651 8.643210 4.000000
32.704297 8.388202 4.000000
31.996801 11.621980 4.000000
31.302260 14.206998 4.000000
34.646065 12.220151 4.000000
34.547259 16.687123 4.000000
33.428024 15.252379 4.000000
31.782817 14.203715 4.000000
33.738374 14.891752 4.000000
32.065151 20.305872 4.000000
31.397250 19.467152 4.000000
32.268741 23.681172 4.000000
31.591648 21.348284 4.000000
30.501300 22.403170 4.000000
35.097805 24.321833 4.000000
33.871864 29.975127 4.000000
33.591095 25.320520 4.000000
31.375757 27.821882 4.000000
30.426334 -3.699692 4.000000
31.813370 -5.997264 4.000000
36.820424 7.005620 4.000000
31.083337 5.956194 4.000000
31.903691 6.964834 4.000000
30.842807 5.582727 4.000000
30.717100 7.812658 4.000000
32.252924 10.962630 4.000000
32.440298 10.737129 4.000000
34.706964 11.727526 4.000000
31.308363 13.406975 4.000000
34.932894 14.032800 4.000000
32.946724 13.706561 4.000000
33.716576 16.984783 4.000000
34.637149 12.529826 4.000000
34.741649 15.984390 4.000000
33.041567 18.442453 4.000000
33.737271 21.294843 4.000000
31.394783 20.616248 4.000000
29.967541 22.273019 4.000000
33.541543 19.302052 4.000000
31.087687 18.702464 4.000000
37.899728 24.733465 4.000000
31.813669 35.181361 4.000000
30.426327 32.883714 4.000000
30.243749 0.455776 4.000000
36.612091 0.991494 4.000000
32.261565 -0.592727 4.000000
34.120525 3.757874 4.000000
31.293205 11.099715 4.000000
31.454830 7.283292 4.000000
35.182393 9.076564 4.000000
35.807599 10.960043 4.000000
31.826443 7.866733 4.000000
32.872172 12.829634 4.000000
31.773636 12.075547 4.000000
35.206909 14.181016 4.000000
33.527327 13.673823 4.000000
32.717204 14.519563 4.000000
33.135234 19.996765 4.000000
31.502810 17.607885 4.000000
32.073430 23.232650 4.000000
35.389567 21.278104 4.000000
33.168619 23.340734 4.000000
30.890165 22.178584 4.000000
31.785854 23.915001 4.000000
34.194738 20.342083 4.000000
31.278413 25.952312 4.000000
34.618643 26.991178 4.000000
31.265473 28.895382 4.000000
39.486586 -7.913987 4.000000
34.096993 0.351551 4.000000
38.457548 1.656762 4.000000
31.754755 7.270369 4.000000
33.159932 6.117376 4.000000
32.611880 5.479106 4.000000
34.395444 11.424547 4.000000
37.575444 9.208595 4.000000
31.630931 9.862059 4.000000
33.389635 12.276051 4.000000
33.634475 12.023203 4.000000
35.026145 12.729018 4.000000
35.557985 15.817072 4.000000
34.841575 17.202683 4.000000
37.511695 17.170256 4.000000
33.901438 17.311372 4.000000
34.959802 19.679131 4.000000
37.391740 19.192060 4.000000
35.877947 18.543127 4.000000
32.091931 21.216908 4.000000
35.232973 19.532215 4.000000
34.796528 22.308402 4.000000
35.705792 29.291722 4.000000
34.872139 21.896070 4.000000
39.486586 37.098000 4.000000
31.510415 1.693982 4.000000
30.488587 1.266663 4.000000
35.672895 -1.464324 4.000000
37.470801 6.914631 4.000000
32.773065 7.648499 4.000000
35.268184 6.487600 4.000000
32.277621 10.503700 4.000000
36.815558 10.309806 4.000000
35.240872 10.381711 4.000000
35.125615 10.825269 4.000000
35.622186 11.482866 4.000000
35.717461 14.541597 4.000000
35.467765 14.135921 4.000000
34.275571 15.523926 4.000000
33.680116 17.513224 4.000000
35.258727 18.165158 4.000000
34.663392 18.106239 4.000000
35.788314 17.982292 4.000000
32.143993 19.677743 4.000000
32.588937 20.397437 4.000000
33.424046 21.007171 4.000000
36.164072 26.006786 4.000000
37.379754 30.472056 4.000000
30.725030 28.917169 4.000000
33.158715 29.311788 4.000000
32.594852 0.631948 4.000000
33.256985 -4.535930 4.000000
34.573719 1.116950 4.000000
35.065920 4.151452 4.000000
33.956543 9.519779 4.000000
34.314112 5.365181 4.000000
37.449325 8.914723 4.000000
36.346630 10.941082 4.000000
35.028557 13.080045 4.000000
37.494885 12.548182 4.000000
35.495115 13.691650 4.000000
36.347467 13.698179 4.000000
35.736088 15.616674 4.000000
37.185348 15.776345 4.000000
34.953486 16.714811 4.000000
36.519704 14.917905 4.000000
36.343703 16.493312 4.000000
32.851722 19.946211 4.000000
34.628691 20.469762 4.000000
36.167562 23.323145 4.000000
35.860774 23.106847 4.000000
35.725503 25.233788 4.000000
34.514504 28.076577 4.000000
33.256986 33.719940 4.000000
32.588540 28.580203 4.000000
32.571007 -0.938262 4.000000
35.950376 0.102982 4.000000
36.577423 2.854361 4.000000
34.379427 2.743353 4.000000
37.244913 5.078856 4.000000
37.760455 8.695838 4.000000
34.140073 8.024290 4.000000
35.305004 12.232237 4.000000
35.610155 9.323743 4.000000
37.562217 14.621416 4.000000
35.450550 12.693958 4.000000
36.107209 13.312502 4.000000
37.387080 13.214546 4.000000
36.720633 14.561428 4.000000
36.698745 17.758718 4.000000
37.663052 15.147476 4.000000
35.570871 18.276625 4.000000
35.461145 16.438927 4.000000
33.689142 20.371042 4.000000
35.818784 20.477849 4.000000
39.564456 22.790002 4.000000
32.551717 27.829749 4.000000
35.333483 23.456732 4.000000
34.680591 25.438061 4.000000
31.453027 29.753557 4.000000
30.734760 -1.967910 4.000000
33.145579 -1.092374 4.000000
38.169599 10.195516 4.000000
33.625781 3.079157 4.000000
37.984554 7.206503 4.000000
38.505093 7.986391 4.000000
37.150055 8.919908 4.000000
36.123354 7.814175 4.000000
36.040720 9.500702 4.000000
36.254889 11.307472 4.000000
38.384926 13.193158 4.000000
38.489431 13.583528 4.000000
37.916010 15.459635 4.000000
36.297177 15.707177 4.000000
36.528184 15.983890 4.000000
35.288052 17.769506 4.000000
37.213618 18.017978 4.000000
37.369163 19.736826 4.000000
38.911580 20.717925 4.000000
36.733607 23.861168 4.000000
36.245360 25.581323 4.000000
33.793607 26.833589 4.000000
37.982376 20.325786 4.000000
33.210337 30.292128 4.000000
30.734283 31.154380 4.000000
30.986768 1.121107 4.000000
32.866631 -1.251380 4.000000
39.686594 3.100197 4.000000
40.584213 5.277964 4.000000
39.142396 6.015011 4.000000
35.682288 6.271563 4.000000
37.309366 9.614394 4.000000
35.587272 8.981193 4.000000
37.592142 11.962999 4.000000
37.139545 11.414154 4.000000
38.497147 10.837093 4.000000
38.056140 13.569222 4.000000
38.178123 15.347166 4.000000
38.523645 15.363138 4.000000
38.350443 18.360122 4.000000
36.502850 17.965762 4.000000
36.427884 18.949290 4.000000
37.116847 19.949034 4.000000
37.802998 19.610339 4.000000
36.434535 24.277451 4.000000
38.267291 21.804576 4.000000
36.132444 21.684631 4.000000
38.192345 28.361171 4.000000
32.881328 30.495126 4.000000
30.822016 29.288594 4.000000
33.066533 -0.159299 4.000000
35.393370 1.996589 4.000000
34.875728 0.090489 4.000000
35.863709 4.369159 4.000000
36.863544 4.522593 4.000000
39.019980 5.663353 4.000000
37.680157 7.218034 4.000000
38.047806 8.826655 4.000000
37.812869 9.991481 4.000000
37.887889 11.157268 4.000000
37.710254 12.288663 4.000000
40.035397 12.729084 4.000000
38.544174 14.592065 4.000000
38.749450 15.865533 4.000000
40.502170 16.152141 4.000000
37.423930 18.150927 4.000000
39.881012 18.350454 4.000000
36.868423 18.750614 4.000000
37.832413 20.525659 4.000000
[...]
POINT_DATA 1250
SCALARS m double
LOOKUP_TABLE default
1.000000
1.000000
1.000000
1.000000
1.000000
1.000000
1.000000
1.000000
1.000000
1.000000
1.000000
1.000000
1.000000
1.000000
1.000000
1.000000
1.000000
1.000000
1.000000
1.000000
1.000000
1.000000
1.000000
1.000000
1.000000
1.000000
1.000000
1.000000
1.000000
1.000000
1.000000
1.000000
1.000000
1.000000
1.000000
1.000000
1.000000
1.000000
1.000000
1.000000
1.000000
1.000000
1.000000
1.000000
1.000000
1.000000
1.000000
1.000000
1.000000
1.000000
1.000000
1.000000
1.000000
1.000000
1.000000
1.000000
1.000000
1.000000
1.000000
1.000000
1.000000
1.000000
1.000000
1.000000
1.000000
1.000000
1.000000
1.000000
1.000000
1.000000
1.000000
1.000000
1.000000
1.000000
1.000000
1.000000
1.000000
1.000000
1.000000
1.000000
1.000000
1.000000
1.000000
1.000000
1.000000
1.000000
1.000000
1.000000
1.000000
1.000000
1.000000
1.000000
1.000000
1.000000
1.000000
1.000000
1.000000
1.000000
1.000000
1.000000
1.000000
1.000000
1.000000
1.000000
1.000000
1.000000
1.000000
1.000000
1.000000
1.000000
1.000000
1.000000
1.000000
1.000000
1.000000
1.000000
1.000000
1.000000
1.000000
1.000000
1.000000
1.000000
1.000000
1.000000
1.000000
1.000000
1.000000
1.000000
1.000000
1.000000
1.000000
1.000000
1.000000
1.000000
1.000000
1.000000
1.000000
1.000000
1.000000
1.000000
1.000000
1.000000
1.000000
1.000000
1.000000
1.000000
1.000000
1.000000
1.000000
1.000000
1.000000
1.000000
1.000000
1.000000
1.000000
1.000000
1.000000
1.000000
1.000000
1.000000
1.000000
1.000000
1.000000
1.000000
1.000000
1.000000
1.000000
1.000000
1.000000
1.000000
1.000000
1.000000
1.000000
1.000000
1.000000
1.000000
1.000000
1.000000
1.000000
1.000000
1.000000
1.000000
1.000000
1.000000
1.000000
1.000000
1.000000
1.000000
1.000000
1.000000
1.000000
1.000000
1.000000
1.000000
1.000000
1.000000
1.000000
1.000000
1.000000
1.000000
1.000000
1.000000
1.000000
1.000000
1.000000
1.000000
1.000000
1.000000
1.000000
1.000000
1.000000
1.000000
1.000000
1.000000
1.000000
1.000000
1.000000
1.000000
1.000000
1.000000
1.000000
1.000000
1.000000
1.000000
1.000000
1.000000
1.000000
1.000000
1.000000
1.000000
1.000000
1.000000
1.000000
1.000000
1.000000
1.000000
1.000000
1.000000
1.000000
1.000000
1.000000
1.000000
1.000000
1.000000
1.000000
1.000000
1.000000
1.000000
1.000000
1.000000
1.000000
1.000000
1.000000
1.000000
1.000000
1.000000
1.000000
1.000000
1.000000
1.000000
1.000000
1.000000
1.000000
1.000000
1.000000
1.000000
1.000000
1.000000
1.000000
1.000000
1.000000
1.000000
1.000000
1.000000
1.000000
1.000000
1.000000
1.000000
1.000000
1.000000
1.000000
1.000000
1.000000
1.000000
1.000000
1.000000
1.000000
1.000000
1.000000
1.000000
1.000000
1.000000
1.000000
1.000000
1.000000
1.000000
1.000000
1.000000
1.000000
1.000000
1.000000
1.000000
1.000000
1.000000
1.000000
1.000000
1.000000
1.000000
1.000000
1.000000
1.000000
1.000000
1.000000
1.000000
1.000000
1.000000
1.000000
1.000000
1.000000
1.000000
1.000000
1.000000
1.000000
1.000000
1.000000
1.000000
1.000000
1.000000
1.000000
1.000000
1.000000
1.000000
1.000000
1.000000
1.000000
1.000000
1.000000
1.000000
1.000000
1.000000
1.000000
1.000000
1.000000
1.000000
1.000000
1.000000
1.000000
1.000000
1.000000
1.000000
1.000000
1.000000
1.000000
1.000000
1.000000
1.000000
1.000000
1.000000
1.000000
1.000000
1.000000
1.000000
1.000000
1.000000
1.000000
1.000000
1.000000
1.000000
1.000000
1.000000
1.000000
1.000000
1.000000
1.000000
1.000000
1.000000
1.000000
1.000000
1.000000
1.000000
1.000000
1.000000
1.000000
1.000000
1.000000
1.000000
1.000000
1.000000
1.000000
1.000000
1.000000
1.000000
1.000000
1.000000
1.000000
1.000000
1.000000
1.000000
1.000000
1.000000
1.000000
1.000000
1.000000
1.000000
1.000000
1.000000
1.000000
1.000000
1.000000
1.000000
1.000000
1.000000
1.000000
1.000000
1.000000
1.000000
1.000000
1.000000
1.000000
1.000000
1.000000
1.000000
1.000000
1.000000
1.000000
1.000000
1.000000
1.000000
1.000000
1.000000
1.000000
1.000000
1.000000
1.000000
1.000000
1.000000
1.000000
1.000000
1.000000
1.000000
1.000000
1.000000
1.000000
1.000000
1.000000
1.000000
1.000000
1.000000
1.000000
1.000000
1.000000
1.000000
1.000000
1.000000
1.000000
1.000000
1.000000
1.000000
1.000000
1.000000
1.000000
1.000000
1.000000
1.000000
1.000000
1.000000
1.000000
1.000000
1.000000
1.000000
1.000000
1.000000
1.000000
1.000000
1.000000
1.000000
1.000000
1.000000
1.000000
1.000000
1.000000
1.000000
1.000000
1.000000
1.000000
1.000000
1.000000
1.000000
1.000000
1.000000
1.000000
1.000000
1.000000
1.000000
1.000000
1.000000
1.000000
1.000000
1.000000
1.000000
1.000000
1.000000
1.000000
1.000000
1.000000
1.000000
1.000000
1.000000
1.000000
1.000000
1.000000
1.000000
1.000000
1.000000
1.000000
1.000000
1.000000
1.000000
1.000000
1.000000
1.000000
1.000000
1.000000
1.000000
1.000000
1.000000
1.000000
1.000000
1.000000
1.000000
1.000000
1.000000
1.000000
1.000000
1.000000
1.000000
1.000000
1.000000
1.000000
1.000000
1.000000
1.000000
1.000000
1.000000
1.000000
1.000000
1.000000
1.000000
1.000000
1.000000
1.000000
1.000000
1.000000
1.000000
1.000000
1.000000
1.000000
1.000000
1.000000
1.000000
1.000000
1.000000
1.000000
1.000000
1.000000
1.000000
1.000000
1.000000
1.000000
1.000000
1.000000
1.000000
1.000000
1.000000
1.000000
1.000000
1.000000
1.000000
1.000000
1.000000
1.000000
1.000000
1.000000
1.000000
1.000000
1.000000
1.000000
1.000000
1.000000
1.000000
1.000000
1.000000
1.000000
1.000000
1.000000
1.000000
1.000000
1.000000
1.000000
1.000000
1.000000
1.000000
1.000000
1.000000
1.000000
1.000000
1.000000
1.000000
1.000000
1.000000
1.000000
1.000000
1.000000
1.000000
1.000000
1.000000
1.000000
1.000000
1.000000
1.000000
1.000000
1.000000
1.000000
1.000000
1.000000
1.000000
1.000000
1.000000
1.000000
1.000000
1.000000
1.000000
1.000000
1.000000
1.000000
1.000000
1.000000
1.000000
1.000000
1.000000
1.000000
1.000000
1.000000
1.000000
1.000000
1.000000
1.000000
1.000000
1.000000
1.000000
1.000000
1.000000
1.000000
1.000000
1.000000
1.000000
1.000000
1.000000
1.000000
1.000000
1.000000
1.000000
1.000000
1.000000
1.000000
1.000000
1.000000
1.000000
1.000000
1.000000
1.000000
1.000000
1.000000
1.000000
1.000000
1.000000
1.000000
1.000000
1.000000
1.000000
1.000000
1.000000
1.000000
1.000000
1.000000
1.000000
1.000000
1.000000
1.000000
1.000000
1.000000
1.000000
1.000000
1.000000
1.000000
1.000000
1.000000
1.000000
1.000000
1.000000
1.000000
1.000000
1.000000
1.000000
1.000000
1.000000
1.000000
1.000000
1.000000
1.000000
1.000000
1.000000
1.000000
1.000000
1.000000
1.000000
1.000000
1.000000
1.000000
1.000000
1.000000
1.000000
1.000000
1.000000
1.000000
1.000000
1.000000
1.000000
1.000000
1.000000
1.000000
1.000000
1.000000
1.000000
1.000000
1.000000
1.000000
1.000000
1.000000
1.000000
1.000000
1.000000
1.000000
1.000000
1.000000
1.000000
1.000000
1.000000
1.000000
1.000000
1.000000
1.000000
1.000000
1.000000
1.000000
1.000000
1.000000
1.000000
1.000000
1.000000
1.000000
1.000000
1.000000
1.000000
1.000000
1.000000
1.000000
1.000000
1.000000
1.000000
1.000000
1.000000
1.000000
1.000000
1.000000
1.000000
1.000000
1.000000
1.000000
1.000000
1.000000
1.000000
1.000000
1.000000
1.000000
1.000000
1.000000
1.000000
1.000000
1.000000
1.000000
1.000000
1.000000
1.000000
1.000000
1.000000
1.000000
1.000000
1.000000
1.000000
1.000000
1.000000
1.000000
1.000000
1.000000
1.000000
1.000000
1.000000
1.000000
1.000000
1.000000
1.000000
1.000000
1.000000
1.000000
1.000000
1.000000
1.000000
1.000000
1.000000
1.000000
1.000000
1.000000
1.000000
1.000000
1.000000
1.000000
1.000000
1.000000
1.000000
1.000000
1.000000
1.000000
1.000000
1.000000
1.000000
1.000000
1.000000
1.000000
1.000000
1.000000
1.000000
1.000000
1.000000
1.000000
1.000000
1.000000
1.000000
1.000000
1.000000
1.000000
1.000000
1.000000
1.000000
1.000000
1.000000
1.000000
1.000000
1.000000
1.000000
1.000000
1.000000
1.000000
1.000000
1.000000
1.000000
1.000000
1.000000
1.000000
1.000000
1.000000
1.000000
1.000000
1.000000
1.000000
1.000000
1.000000
1.000000
1.000000
1.000000
1.000000
1.000000
1.000000
1.000000
1.000000
1.000000
1.000000
1.000000
1.000000
1.000000
1.000000
1.000000
1.000000
1.000000
1.000000
1.000000
1.000000
1.000000
1.000000
1.000000
1.000000
1.000000
1.000000
1.000000
1.000000
1.000000
1.000000
1.000000
1.000000
1.000000
1.000000
1.000000
1.000000
1.000000
1.000000
1.000000
1.000000
1.000000
1.000000
1.000000
1.000000
1.000000
1.000000
1.000000
1.000000
1.000000
1.000000
1.000000
1.000000
1.000000
1.000000
1.000000
1.000000
1.000000
1.000000
1.000000
1.000000
1.000000
1.000000
1.000000
1.000000
1.000000
1.000000
1.000000
1.000000
1.000000
1.000000
1.000000
1.000000
1.000000
1.000000
1.000000
1.000000
1.000000
1.000000
1.000000
1.000000
1.000000
1.000000
1.000000
1.000000
1.000000
1.000000
1.000000
1.000000
1.000000
1.000000
1.000000
1.000000
1.000000
1.000000
1.000000
1.000000
1.000000
1.000000
1.000000
1.000000
1.000000
1.000000
1.000000
1.000000
1.000000
1.000000
1.000000
1.000000
1.000000
1.000000
1.000000
1.000000
1.000000
1.000000
1.000000
1.000000
1.000000
1.000000
1.000000
1.000000
1.000000
1.000000
1.000000
1.000000
1.000000
1.000000
1.000000
1.000000
1.000000
1.000000
1.000000
1.000000
1.000000
1.000000
1.000000
1.000000
1.000000
1.000000
1.000000
1.000000
1.000000
1.000000
1.000000
1.000000
1.000000
1.000000
1.000000
1.000000
1.000000
1.000000
1.000000
1.000000
1.000000
1.000000
1.000000
1.000000
1.000000
1.000000
1.000000
1.000000
1.000000
1.000000
1.000000
1.000000
1.000000
1.000000
1.000000
1.000000
1.000000
1.000000
1.000000
1.000000
1.000000
1.000000
1.000000
1.000000
1.000000
1.000000
1.000000
1.000000
1.000000
1.000000
1.000000
1.000000
1.000000
1.000000
1.000000
1.000000
1.000000
1.000000
1.000000
1.000000
1.000000
1.000000
1.000000
1.000000
1.000000
1.000000
1.000000
1.000000
1.000000
1.000000
1.000000
1.000000
1.000000
1.000000
1.000000
1.000000
1.000000
1.000000
1.000000
1.000000
1.000000
1.000000
1.000000
1.000000
1.000000
1.000000
1.000000
1.000000
1.000000
1.000000
1.000000
1.000000
1.000000
1.000000
1.000000
1.000000
1.000000
1.000000
1.000000
1.000000
1.000000
1.000000
1.000000
1.000000
1.000000
1.000000
1.000000
1.000000
1.000000
1.000000
1.000000
1.000000
1.000000
1.000000
1.000000
1.000000
1.000000
1.000000
1.000000
1.000000
1.000000
1.000000
1.000000
1.000000
1.000000
1.000000
1.000000
1.000000
1.000000
1.000000
1.000000
1.000000
1.000000
1.000000
1.000000
1.000000
1.000000
1.000000
1.000000
1.000000
1.000000
1.000000
1.000000
1.000000
1.000000
1.000000
1.000000
1.000000
1.000000
1.000000
1.000000
1.000000
1.000000
1.000000
1.000000
1.000000
1.000000
1.000000
1.000000
1.000000
1.000000
1.000000
1.000000
1.000000
1.000000
1.000000
1.000000
1.000000
1.000000
1.000000
1.000000
1.000000
1.000000
1.000000
1.000000
1.000000
1.000000
1.000000
1.000000
1.000000
1.000000
1.000000
1.000000
1.000000
1.000000
1.000000
1.000000
1.000000
1.000000
1.000000
1.000000
1.000000
1.000000
1.000000
1.000000
1.000000
1.000000
1.000000
1.000000
1.000000
1.000000
1.000000
1.000000
1.000000
1.000000
1.000000
1.000000
1.000000
1.000000
1.000000
1.000000
1.000000
1.000000
1.000000
1.000000
1.000000
1.000000
1.000000
1.000000
1.000000
1.000000
1.000000
1.000000
1.000000
1.000000
1.000000
1.000000
1.000000
1.000000
1.000000
1.000000
1.000000
1.000000
1.000000
1.000000
1.000000
1.000000
1.000000
1.000000
1.000000
1.000000
VECTORS v double
3.960216 -7.057723 0.000000
-2.672649 -3.930319 0.000000
-3.110482 4.921860 0.000000
-6.187212 -1.487610 0.000000
4.114725 -5.801233 0.000000
0.046796 11.052091 0.000000
10.068847 6.865160 0.000000
-1.084701 11.358291 0.000000
-0.355516 11.505320 0.000000
6.846999 7.048479 0.000000
-3.842485 9.254748 0.000000
9.886832 1.461955 0.000000
10.006894 -0.035843 0.000000
9.834883 -1.575531 0.000000
9.884578 0.390217 0.000000
-5.610325 -4.932442 0.000000
4.509209 -1.105847 0.000000
-3.987569 -5.973617 0.000000
-5.784619 3.859138 0.000000
2.753385 -7.219539 0.000000
0.691945 -9.405920 0.000000
7.286958 7.683648 0.000000
1.598813 -2.211635 0.000000
5.519044 7.495881 0.000000
-2.060089 1.817104 0.000000
2.630977 -13.726701 0.000000
1.557287 -10.741314 0.000000
5.368011 -9.595545 0.000000
-0.804366 -10.345825 0.000000
0.546891 5.579748 0.000000
-1.764964 -8.160739 0.000000
-1.957677 -1.072066 0.000000
-5.058564 -1.164388 0.000000
5.722343 15.352815 0.000000
3.901150 1.476991 0.000000
-0.834645 5.185108 0.000000
8.228419 -5.110453 0.000000
9.280107 1.168413 0.000000
6.369023 5.244234 0.000000
7.220755 -1.234143 0.000000
1.314118 -15.005915 0.000000
-4.132650 -7.130650 0.000000
-4.544721 0.421240 0.000000
-4.683859 7.536562 0.000000
1.253646 0.127370 0.000000
9.101795 5.417307 0.000000
-3.172138 -6.683271 0.000000
5.386692 9.582148 0.000000
-0.084786 -0.820790 0.000000
2.630977 13.726701 0.000000
-0.037810 -9.543951 0.000000
13.335981 -9.315640 0.000000
5.127685 -4.477727 0.000000
-6.469483 -5.409627 0.000000
9.496925 -4.342648 0.000000
-0.210786 9.330028 0.000000
-5.360246 -6.789759 0.000000
5.842725 -5.888441 0.000000
-9.416922 5.687430 0.000000
-6.784684 0.988964 0.000000
7.693860 -3.570710 0.000000
-7.361506 6.095498 0.000000
12.677865 0.141110 0.000000
11.266993 -7.659506 0.000000
0.457018 -8.503944 0.000000
2.432421 4.851409 0.000000
11.359280 -0.290350 0.000000
-3.716911 -6.820186 0.000000
1.647065 6.634567 0.000000
12.100988 -10.720004 0.000000
3.324451 8.061420 0.000000
-9.901034 -7.181906 0.000000
3.518795 2.339297 0.000000
0.969104 7.941602 0.000000
-0.062435 9.546634 0.000000
-0.173836 -3.507094 0.000000
6.835073 -10.617915 0.000000
2.345610 -1.681980 0.000000
6.017987 -2.419545 0.000000
-8.965116 3.724982 0.000000
-8.765079 4.072095 0.000000
-18.122561 1.292472 0.000000
-8.975874 -1.752785 0.000000
5.216242 2.263705 0.000000
5.043360 -12.303328 0.000000
-0.435070 7.097430 0.000000
10.115381 11.764885 0.000000
1.066848 -1.714602 0.000000
-3.925021 -1.224084 0.000000
12.773865 -17.147185 0.000000
-3.178977 1.987838 0.000000
8.683650 0.620845 0.000000
-1.503471 -11.653557 0.000000
-10.903566 1.815633 0.000000
-4.028790 -1.810328 0.000000
2.193615 9.605544 0.000000
4.150267 7.062343 0.000000
-6.015305 8.680131 0.000000
6.835078 10.617914 0.000000
-0.198335 3.516872 0.000000
-4.976566 -0.428051 0.000000
-6.683811 -6.849993 0.000000
-3.248803 -18.616742 0.000000
-5.892199 -5.511351 0.000000
3.994277 1.684405 0.000000
4.623274 3.154659 0.000000
2.302299 -1.228405 0.000000
12.417251 5.548910 0.000000
6.080927 2.938885 0.000000
-0.000847 0.293969 0.000000
-9.276488 5.412391 0.000000
-0.870038 -10.144411 0.000000
6.470005 3.048266 0.000000
-1.699372 -18.672423 0.000000
-4.952379 -9.297520 0.000000
1.606036 -7.871185 0.000000
-6.169688 5.722333 0.000000
7.180411 -10.543582 0.000000
2.498431 3.511993 0.000000
-1.988007 -1.071561 0.000000
5.795616 -0.116209 0.000000
-6.869947 7.243764 0.000000
9.792094 6.642280 0.000000
4.280408 11.347293 0.000000
-8.519002 6.171056 0.000000
-1.113272 -6.327242 0.000000
-1.995875 -10.927650 0.000000
5.227511 -12.362938 0.000000
-2.537927 7.020194 0.000000
-6.672032 -0.094076 0.000000
-6.973990 4.566528 0.000000
-3.564374 4.495872 0.000000
9.065681 -2.038579 0.000000
3.165861 7.106263 0.000000
13.190755 -7.373853 0.000000
-16.090570 -0.606864 0.000000
-15.824084 4.964007 0.000000
-3.927013 -10.904218 0.000000
17.348962 4.697029 0.000000
11.986750 -12.047018 0.000000
1.529819 -0.612493 0.000000
-2.102568 -5.045575 0.000000
4.042959 12.433603 0.000000
-2.598332 -2.848369 0.000000
-3.159223 7.675335 0.000000
-0.604104 -11.587423 0.000000
-3.373590 0.552260 0.000000
11.358984 0.041261 0.000000
-1.995436 10.927776 0.000000
-1.113295 6.327271 0.000000
5.118946 -5.779647 0.000000
-0.687169 -18.205515 0.000000
3.979126 -4.724588 0.000000
-5.979907 -7.195302 0.000000
1.629619 13.069889 0.000000
6.759059 -8.749254 0.000000
7.129928 6.933302 0.000000
0.082793 12.202590 0.000000
-9.549246 -3.725814 0.000000
2.067406 4.850401 0.000000
4.233462 -8.654848 0.000000
-13.910003 5.894908 0.000000
-1.686400 -3.858328 0.000000
-10.198706 -5.072719 0.000000
4.525151 12.171019 0.000000
-16.716036 0.429545 0.000000
0.819014 16.440401 0.000000
-8.030946 13.742880 0.000000
-0.608454 -6.573021 0.000000
-9.423046 2.563974 0.000000
6.367774 1.443120 0.000000
3.792069 -7.729544 0.000000
-5.595746 -9.997654 0.000000
-13.972730 8.617558 0.000000
-0.361809 9.970136 0.000000
4.837053 -9.997753 0.000000
-2.024285 -9.041504 0.000000
10.431620 -0.575529 0.000000
-6.433471 -5.096353 0.000000
-8.122650 3.988562 0.000000
-2.451970 -4.757134 0.000000
0.288412 -11.914281 0.000000
3.327344 0.476856 0.000000
-2.217639 3.710958 0.000000
-5.975778 6.571006 0.000000
-16.348703 4.908532 0.000000
-7.765330 -8.547430 0.000000
-17.401024 8.244687 0.000000
1.190124 10.580514 0.000000
6.341799 4.638535 0.000000
-8.488657 10.486538 0.000000
-1.233343 -2.084502 0.000000
-11.980525 -4.608991 0.000000
-3.281922 -6.786057 0.000000
-7.073886 -2.332817 0.000000
-11.915857 -8.796234 0.000000
-2.714371 -12.175591 0.000000
-5.418637 11.097477 0.000000
-4.365827 -12.935242 0.000000
4.837053 9.997753 0.000000
-2.893923 -4.331562 0.000000
10.003759 -1.784706 0.000000
-5.814675 -11.692184 0.000000
4.517424 9.336836 0.000000
-7.690341 -0.525770 0.000000
1.405183 -3.136888 0.000000
-8.729083 12.104843 0.000000
2.172945 -6.591174 0.000000
4.070623 -1.773758 0.000000
-6.712091 -7.637655 0.000000
-0.590149 4.171519 0.000000
1.807280 8.754263 0.000000
9.372986 -12.194252 0.000000
-8.354408 -0.420237 0.000000
-3.982259 3.671262 0.000000
-4.223223 -1.874909 0.000000
-1.316172 0.041782 0.000000
3.337433 -8.841498 0.000000
-13.330695 -8.231249 0.000000
-8.811399 -5.104640 0.000000
3.869786 -2.534508 0.000000
-9.462643 4.027861 0.000000
0.941068 7.841230 0.000000
-6.303748 4.314538 0.000000
0.415839 8.132389 0.000000
1.633158 -0.887526 0.000000
-3.933424 -8.257501 0.000000
-7.124238 -6.605031 0.000000
-0.701443 -3.583347 0.000000
-0.648400 18.473671 0.000000
-13.748257 -6.334783 0.000000
2.269390 -6.839891 0.000000
10.046560 4.898359 0.000000
-1.843949 -1.999478 0.000000
-3.362977 10.052551 0.000000
2.821996 14.947132 0.000000
7.525312 0.905578 0.000000
9.079642 0.013096 0.000000
0.047699 18.733942 0.000000
18.965571 -1.814617 0.000000
14.135064 -0.505169 0.000000
12.617473 5.837044 0.000000
-7.751604 1.235343 0.000000
-7.853502 9.802867 0.000000
2.814673 -1.884701 0.000000
-2.250446 4.206906 0.000000
-7.539616 4.193670 0.000000
-7.308711 6.998502 0.000000
-3.933418 8.257501 0.000000
1.767892 1.797436 0.000000
11.792413 -6.389525 0.000000
-13.123423 -7.345697 0.000000
3.131956 3.052486 0.000000
-2.376806 -1.337789 0.000000
-4.967595 -1.551912 0.000000
9.752446 7.393617 0.000000
-10.300170 2.125194 0.000000
-0.997176 -5.443856 0.000000
-16.845608 -6.143350 0.000000
-8.208530 8.095800 0.000000
-2.541676 0.538343 0.000000
-9.926077 -1.143665 0.000000
3.300612 -14.176463 0.000000
-10.219009 -14.870315 0.000000
-1.907407 8.395489 0.000000
6.764702 -1.701345 0.000000
3.845522 -0.039641 0.000000
-0.848124 -8.841279 0.000000
-7.528990 1.681902 0.000000
-3.517368 -4.865418 0.000000
1.633720 -6.830999 0.000000
-7.688871 6.474463 0.000000
4.994862 8.369732 0.000000
-3.643200 -6.597391 0.000000
-7.869516 -3.596906 0.000000
-7.979633 -7.180406 0.000000
-7.398608 -4.583398 0.000000
-5.758736 12.316851 0.000000
2.922171 -7.647253 0.000000
2.558798 3.616850 0.000000
-14.441163 6.038997 0.000000
-2.751252 4.128564 0.000000
-6.306146 0.965649 0.000000
-4.498563 4.394407 0.000000
-11.027516 3.207855 0.000000
4.728204 4.477381 0.000000
10.154869 0.779224 0.000000
1.118907 11.892409 0.000000
-9.927776 0.064640 0.000000
-6.882101 -4.836355 0.000000
-13.345878 -6.665764 0.000000
3.553440 -10.539110 0.000000
12.936076 -1.259346 0.000000
7.268000 0.742802 0.000000
-5.275115 -2.778501 0.000000
0.375447 7.272599 0.000000
-1.554298 8.546189 0.000000
0.221647 -1.891558 0.000000
-6.756487 4.605125 0.000000
-7.983281 7.192487 0.000000
-10.027022 -0.193147 0.000000
-8.641659 -9.511198 0.000000
3.569087 1.430787 0.000000
-7.220431 3.733196 0.000000
3.475652 -5.745634 0.000000
-2.187246 1.682487 0.000000