# vtk DataFile Version 4.0
hesp visualization file
ASCII
DATASET UNSTRUCTURED_GRID
POINTS 1250 double
33.911591 3.573647 4.000000
30.312048 2.539995 4.000000
33.241182 4.332019 4.000000
32.006403 4.422581 4.000000
31.587392 5.797364 4.000000
30.240163 7.951680 4.000000
30.612199 8.528013 4.000000
30.117491 8.979059 4.000000
30.117782 10.102161 4.000000
30.117784 11.224620 4.000000
30.117784 12.347083 4.000000
30.117784 13.469545 4.000000
30.117784 14.592007 4.000000
30.117784 15.714469 4.000000
30.117784 16.836931 4.000000
30.117784 17.959393 4.000000
30.117782 19.081853 4.000000
30.117490 20.204955 4.000000
30.603149 20.657298 4.000000
30.240487 21.232567 4.000000
31.584467 23.389894 4.000000
32.030303 24.887305 4.000000
33.144591 24.764918 4.000000
30.255518 26.681904 4.000000
33.911441 25.610364 4.000000
30.475185 -6.036038 4.000000
34.101241 1.359719 4.000000
30.314559 0.603176 4.000000
31.605366 4.451464 4.000000
31.574441 6.686835 4.000000
31.363221 7.051042 4.000000
31.424642 7.771455 4.000000
31.228511 8.984723 4.000000
31.208391 10.102203 4.000000
31.208093 11.224620 4.000000
31.208093 12.347083 4.000000
31.208093 13.469545 4.000000
31.208093 14.592007 4.000000
31.208093 15.714469 4.000000
31.208093 16.836931 4.000000
31.208093 17.959393 4.000000
31.208389 19.081810 4.000000
31.228426 20.199255 4.000000
31.424628 21.412493 4.000000
31.366515 22.132518 4.000000
31.539389 22.377883 4.000000
31.607692 24.749298 4.000000
30.317245 28.578711 4.000000
34.101239 27.824296 4.000000
30.475185 35.220052 4.000000
31.808787 0.938885 4.000000
31.863783 3.616962 4.000000
31.606483 5.542479 4.000000
33.466374 5.412138 4.000000
30.625215 5.550643 4.000000
30.830467 7.876227 4.000000
32.202760 10.080042 4.000000
31.428777 8.868390 4.000000
31.443754 10.101679 4.000000
31.443674 11.224619 4.000000
31.443673 12.347083 4.000000
31.443673 13.469545 4.000000
31.443673 14.592007 4.000000
31.443673 15.714469 4.000000
31.443673 16.836931 4.000000
31.443674 17.959394 4.000000
31.443754 19.082332 4.000000
31.428733 20.315465 4.000000
32.204651 19.106956 4.000000
30.909656 21.621380 4.000000
30.625229 23.633256 4.000000
33.337986 23.914351 4.000000
31.551218 23.833626 4.000000
32.045655 25.726204 4.000000
31.808809 28.245124 4.000000
31.655485 -1.504883 4.000000
30.181910 -2.454701 4.000000
32.223098 3.010572 4.000000
32.741656 3.893918 4.000000
32.009827 5.077413 4.000000
30.561095 7.262587 4.000000
32.352672 7.958170 4.000000
32.241946 9.021529 4.000000
32.712213 10.377596 4.000000
32.534175 11.224617 4.000000
32.534176 12.347083 4.000000
32.534176 13.469545 4.000000
32.534176 14.592007 4.000000
32.534176 15.714469 4.000000
32.534176 16.836931 4.000000
32.534175 17.959396 4.000000
32.713381 18.804791 4.000000
32.239712 20.162580 4.000000
32.352684 21.225914 4.000000
30.435921 21.730876 4.000000
31.980089 24.111894 4.000000
32.825632 24.970167 4.000000
32.198591 26.084345 4.000000
30.181908 31.638714 4.000000
31.655485 30.688897 4.000000
34.191783 3.998641 4.000000
30.462814 3.581907 4.000000
30.398599 1.693518 4.000000
33.945404 4.943888 4.000000
32.204052 6.764707 4.000000
31.829401 6.724700 4.000000
32.742677 7.798296 4.000000
32.740438 8.979975 4.000000
32.756429 10.081791 4.000000
32.769835 11.224619 4.000000
32.769836 12.347083 4.000000
32.769836 13.469545 4.000000
32.769836 14.592007 4.000000
32.769836 15.714469 4.000000
32.769836 16.836931 4.000000
32.769835 17.959395 4.000000
32.755081 19.100835 4.000000
32.740439 20.204038 4.000000
32.742675 21.385683 4.000000
31.940477 22.324357 4.000000
32.089656 22.587937 4.000000
34.499612 24.498267 4.000000
30.399009 27.487719 4.000000
30.456408 25.598706 4.000000
33.759935 24.796788 4.000000
30.906230 -0.978675 4.000000
32.671464 -1.298658 4.000000
35.340107 4.989430 4.000000
32.103024 6.072995 4.000000
34.148742 7.165384 4.000000
32.854450 6.879862 4.000000
33.859932 7.900540 4.000000
33.860535 8.979490 4.000000
33.860557 10.102161 4.000000
33.860557 11.224620 4.000000
33.860557 12.347083 4.000000
33.860557 13.469545 4.000000
33.860557 14.592007 4.000000
33.860557 15.714469 4.000000
33.860557 16.836931 4.000000
33.860557 17.959393 4.000000
33.860557 19.081853 4.000000
33.860535 20.204523 4.000000
33.859933 21.283487 4.000000
32.943104 22.447430 4.000000
34.100358 21.959892 4.000000
32.056369 23.235871 4.000000
35.637050 24.326409 4.000000
32.671575 30.482701 4.000000
30.906228 30.162689 4.000000
31.919832 1.479473 4.000000
36.230942 2.805291 4.000000
31.692655 2.618755 4.000000
33.080982 4.554617 4.000000
32.872793 6.049332 4.000000
34.064676 6.720818 4.000000
34.083084 7.854513 4.000000
34.096328 8.979717 4.000000
34.096439 10.102158 4.000000
34.096441 11.224620 4.000000
34.096442 12.347083 4.000000
34.096442 13.469545 4.000000
34.096442 14.592007 4.000000
34.096442 15.714469 4.000000
34.096442 16.836931 4.000000
34.096441 17.959393 4.000000
34.096439 19.081855 4.000000
34.096328 20.204296 4.000000
34.083088 21.329507 4.000000
34.063980 22.463015 4.000000
33.021871 23.083620 4.000000
33.000201 24.548938 4.000000
31.439197 26.303150 4.000000
36.230456 26.377903 4.000000
31.920326 27.708303 4.000000
37.406653 -3.614953 4.000000
34.565836 3.930424 4.000000
35.688448 2.474934 4.000000
33.833369 6.031550 4.000000
36.114978 5.560495 4.000000
35.175522 6.745976 4.000000
35.188212 7.857453 4.000000
35.187205 8.979697 4.000000
35.187204 10.102158 4.000000
35.187204 11.224620 4.000000
35.187204 12.347083 4.000000
35.187204 13.469545 4.000000
35.187204 14.592007 4.000000
35.187204 15.714469 4.000000
35.187204 16.836931 4.000000
35.187204 17.959393 4.000000
35.187204 19.081855 4.000000
35.187205 20.204316 4.000000
35.187504 21.326605 4.000000
35.175504 22.437139 4.000000
36.109937 23.633466 4.000000
33.833272 23.045451 4.000000
35.687394 26.708544 4.000000
34.410145 25.108231 4.000000
37.406653 32.798966 4.000000
32.795401 3.592358 4.000000
33.973558 1.972981 4.000000
36.533690 3.035257 4.000000
36.457899 5.188251 4.000000
35.716687 6.070485 4.000000
35.417335 6.743094 4.000000
35.423784 7.854833 4.000000
35.423496 8.979692 4.000000
35.423496 10.102158 4.000000
35.423496 11.224620 4.000000
35.423496 12.347083 4.000000
35.423496 13.469545 4.000000
35.423496 14.592007 4.000000
35.423496 15.714469 4.000000
35.423496 16.836931 4.000000
35.423496 17.959393 4.000000
35.423496 19.081855 4.000000
35.423496 20.204321 4.000000
35.423609 21.328717 4.000000
35.417952 22.441091 4.000000
35.717626 23.110899 4.000000
36.533246 24.004111 4.000000
36.496410 26.177911 4.000000
33.973609 27.210833 4.000000
32.966299 25.819751 4.000000
31.958906 1.164969 4.000000
34.948294 -0.985145 4.000000
35.284822 3.071238 4.000000
36.023504 4.525095 4.000000
35.923666 8.195020 4.000000
36.515073 6.728718 4.000000
36.513250 7.853051 4.000000
36.514007 8.979693 4.000000
36.514008 10.102158 4.000000
36.514008 11.224620 4.000000
36.514008 12.347083 4.000000
36.514008 13.469545 4.000000
36.514008 14.592007 4.000000
36.514008 15.714469 4.000000
36.514008 16.836931 4.000000
36.514008 17.959393 4.000000
36.514008 19.081855 4.000000
36.514007 20.204321 4.000000
36.513215 21.331048 4.000000
36.512022 22.455554 4.000000
35.920253 20.989300 4.000000
35.958251 24.695730 4.000000
35.285993 26.111613 4.000000
34.948294 30.169157 4.000000
31.958867 28.019009 4.000000
32.634005 0.829320 4.000000
36.119499 1.836499 4.000000
36.854425 4.862548 4.000000
35.861608 4.075936 4.000000
36.788115 5.331820 4.000000
36.755549 6.741402 4.000000
36.747868 7.857654 4.000000
36.750846 8.979696 4.000000
36.750847 10.102158 4.000000
36.750847 11.224620 4.000000
36.750847 12.347083 4.000000
36.750847 13.469545 4.000000
36.750847 14.592007 4.000000
36.750847 15.714469 4.000000
36.750847 16.836931 4.000000
36.750847 17.959393 4.000000
36.750847 19.081855 4.000000
36.750846 20.204317 4.000000
36.747730 21.326352 4.000000
36.754901 22.439840 4.000000
36.794692 23.848248 4.000000
35.858473 25.036882 4.000000
36.856156 24.320796 4.000000
36.119226 27.347816 4.000000
32.634004 28.354694 4.000000
34.167461 1.116449 4.000000
36.933179 1.233912 4.000000
37.179005 6.881954 4.000000
37.203513 3.731352 4.000000
36.914960 5.613528 4.000000
37.840332 6.728084 4.000000
37.840845 7.857237 4.000000
37.840847 8.979696 4.000000
37.840847 10.102158 4.000000
37.840847 11.224620 4.000000
37.840847 12.347083 4.000000
37.840847 13.469545 4.000000
37.840847 14.592007 4.000000
37.840847 15.714469 4.000000
37.840847 16.836931 4.000000
37.840847 17.959393 4.000000
37.840847 19.081855 4.000000
37.840847 20.204317 4.000000
37.840845 21.326776 4.000000
37.840334 22.455898 4.000000
36.915693 23.570679 4.000000
37.181390 25.429174 4.000000
37.173185 22.292188 4.000000
36.933608 27.950580 4.000000
34.167461 28.067564 4.000000
35.292141 1.126916 4.000000
35.382379 1.938075 4.000000
38.123601 2.560797 4.000000
38.473573 5.037167 4.000000
38.046819 5.616201 4.000000
38.075437 6.735469 4.000000
38.078256 7.857234 4.000000
38.078262 8.979696 4.000000
38.078262 10.102158 4.000000
38.078262 11.224620 4.000000
38.078262 12.347083 4.000000
38.078262 13.469545 4.000000
38.078262 14.592007 4.000000
38.078262 15.714469 4.000000
38.078262 16.836931 4.000000
38.078262 17.959393 4.000000
38.078262 19.081855 4.000000
38.078262 20.204317 4.000000
38.078256 21.326779 4.000000
38.075443 22.448547 4.000000
38.046818 23.567658 4.000000
38.485259 24.169327 4.000000
38.120718 26.619974 4.000000
35.382635 27.246434 4.000000
35.292141 28.057097 4.000000
36.374809 0.989746 4.000000
37.774712 1.734615 4.000000
37.332578 3.462238 4.000000
38.249760 4.449616 4.000000
39.167482 5.609242 4.000000
39.167626 6.734785 4.000000
39.167627 7.857234 4.000000
39.167627 8.979696 4.000000
39.167627 10.102158 4.000000
39.167627 11.224620 4.000000
39.167627 12.347083 4.000000
39.167627 13.469545 4.000000
39.167627 14.592007 4.000000
39.167627 15.714469 4.000000
39.167627 16.836931 4.000000
39.167627 17.959393 4.000000
39.167627 19.081855 4.000000
39.167627 20.204317 4.000000
39.167627 21.326780 4.000000
[...]
POINT_DATA 1250
SCALARS m double
LOOKUP_TABLE default
1.000000
1.000000
1.000000
1.000000
1.000000
1.000000
1.000000
1.000000
1.000000
1.000000
1.000000
1.000000
1.000000
1.000000
1.000000
1.000000
1.000000
1.000000
1.000000
1.000000
1.000000
1.000000
1.000000
1.000000
1.000000
1.000000
1.000000
1.000000
1.000000
1.000000
1.000000
1.000000
1.000000
1.000000
1.000000
1.000000
1.000000
1.000000
1.000000
1.000000
1.000000
1.000000
1.000000
1.000000
1.000000
1.000000
1.000000
1.000000
1.000000
1.000000
1.000000
1.000000
1.000000
1.000000
1.000000
1.000000
1.000000
1.000000
1.000000
1.000000
1.000000
1.000000
1.000000
1.000000
1.000000
1.000000
1.000000
1.000000
1.000000
1.000000
1.000000
1.000000
1.000000
1.000000
1.000000
1.000000
1.000000
1.000000
1.000000
1.000000
1.000000
1.000000
1.000000
1.000000
1.000000
1.000000
1.000000
1.000000
1.000000
1.000000
1.000000
1.000000
1.000000
1.000000
1.000000
1.000000
1.000000
1.000000
1.000000
1.000000
1.000000
1.000000
1.000000
1.000000
1.000000
1.000000
1.000000
1.000000
1.000000
1.000000
1.000000
1.000000
1.000000
1.000000
1.000000
1.000000
1.000000
1.000000
1.000000
1.000000
1.000000
1.000000
1.000000
1.000000
1.000000
1.000000
1.000000
1.000000
1.000000
1.000000
1.000000
1.000000
1.000000
1.000000
1.000000
1.000000
1.000000
1.000000
1.000000
1.000000
1.000000
1.000000
1.000000
1.000000
1.000000
1.000000
1.000000
1.000000
1.000000
1.000000
1.000000
1.000000
1.000000
1.000000
1.000000
1.000000
1.000000
1.000000
1.000000
1.000000
1.000000
1.000000
1.000000
1.000000
1.000000
1.000000
1.000000
1.000000
1.000000
1.000000
1.000000
1.000000
1.000000
1.000000
1.000000
1.000000
1.000000
1.000000
1.000000
1.000000
1.000000
1.000000
1.000000
1.000000
1.000000
1.000000
1.000000
1.000000
1.000000
1.000000
1.000000
1.000000
1.000000
1.000000
1.000000
1.000000
1.000000
1.000000
1.000000
1.000000
1.000000
1.000000
1.000000
1.000000
1.000000
1.000000
1.000000
1.000000
1.000000
1.000000
1.000000
1.000000
1.000000
1.000000
1.000000
1.000000
1.000000
1.000000
1.000000
1.000000
1.000000
1.000000
1.000000
1.000000
1.000000
1.000000
1.000000
1.000000
1.000000
1.000000
1.000000
1.000000
1.000000
1.000000
1.000000
1.000000
1.000000
1.000000
1.000000
1.000000
1.000000
1.000000
1.000000
1.000000
1.000000
1.000000
1.000000
1.000000
1.000000
1.000000
1.000000
1.000000
1.000000
1.000000
1.000000
1.000000
1.000000
1.000000
1.000000
1.000000
1.000000
1.000000
1.000000
1.000000
1.000000
1.000000
1.000000
1.000000
1.000000
1.000000
1.000000
1.000000
1.000000
1.000000
1.000000
1.000000
1.000000
1.000000
1.000000
1.000000
1.000000
1.000000
1.000000
1.000000
1.000000
1.000000
1.000000
1.000000
1.000000
1.000000
1.000000
1.000000
1.000000
1.000000
1.000000
1.000000
1.000000
1.000000
1.000000
1.000000
1.000000
1.000000
1.000000
1.000000
1.000000
1.000000
1.000000
1.000000
1.000000
1.000000
1.000000
1.000000
1.000000
1.000000
1.000000
1.000000
1.000000
1.000000
1.000000
1.000000
1.000000
1.000000
1.000000
1.000000
1.000000
1.000000
1.000000
1.000000
1.000000
1.000000
1.000000
1.000000
1.000000
1.000000
1.000000
1.000000
1.000000
1.000000
1.000000
1.000000
1.000000
1.000000
1.000000
1.000000
1.000000
1.000000
1.000000
1.000000
1.000000
1.000000
1.000000
1.000000
1.000000
1.000000
1.000000
1.000000
1.000000
1.000000
1.000000
1.000000
1.000000
1.000000
1.000000
1.000000
1.000000
1.000000
1.000000
1.000000
1.000000
1.000000
1.000000
1.000000
1.000000
1.000000
1.000000
1.000000
1.000000
1.000000
1.000000
1.000000
1.000000
1.000000
1.000000
1.000000
1.000000
1.000000
1.000000
1.000000
1.000000
1.000000
1.000000
1.000000
1.000000
1.000000
1.000000
1.000000
1.000000
1.000000
1.000000
1.000000
1.000000
1.000000
1.000000
1.000000
1.000000
1.000000
1.000000
1.000000
1.000000
1.000000
1.000000
1.000000
1.000000
1.000000
1.000000
1.000000
1.000000
1.000000
1.000000
1.000000
1.000000
1.000000
1.000000
1.000000
1.000000
1.000000
1.000000
1.000000
1.000000
1.000000
1.000000
1.000000
1.000000
1.000000
1.000000
1.000000
1.000000
1.000000
1.000000
1.000000
1.000000
1.000000
1.000000
1.000000
1.000000
1.000000
1.000000
1.000000
1.000000
1.000000
1.000000
1.000000
1.000000
1.000000
1.000000
1.000000
1.000000
1.000000
1.000000
1.000000
1.000000
1.000000
1.000000
1.000000
1.000000
1.000000
1.000000
1.000000
1.000000
1.000000
1.000000
1.000000
1.000000
1.000000
1.000000
1.000000
1.000000
1.000000
1.000000
1.000000
1.000000
1.000000
1.000000
1.000000
1.000000
1.000000
1.000000
1.000000
1.000000
1.000000
1.000000
1.000000
1.000000
1.000000
1.000000
1.000000
1.000000
1.000000
1.000000
1.000000
1.000000
1.000000
1.000000
1.000000
1.000000
1.000000
1.000000
1.000000
1.000000
1.000000
1.000000
1.000000
1.000000
1.000000
1.000000
1.000000
1.000000
1.000000
1.000000
1.000000
1.000000
1.000000
1.000000
1.000000
1.000000
1.000000
1.000000
1.000000
1.000000
1.000000
1.000000
1.000000
1.000000
1.000000
1.000000
1.000000
1.000000
1.000000
1.000000
1.000000
1.000000
1.000000
1.000000
1.000000
1.000000
1.000000
1.000000
1.000000
1.000000
1.000000
1.000000
1.000000
1.000000
1.000000
1.000000
1.000000
1.000000
1.000000
1.000000
1.000000
1.000000
1.000000
1.000000
1.000000
1.000000
1.000000
1.000000
1.000000
1.000000
1.000000
1.000000
1.000000
1.000000
1.000000
1.000000
1.000000
1.000000
1.000000
1.000000
1.000000
1.000000
1.000000
1.000000
1.000000
1.000000
1.000000
1.000000
1.000000
1.000000
1.000000
1.000000
1.000000
1.000000
1.000000
1.000000
1.000000
1.000000
1.000000
1.000000
1.000000
1.000000
1.000000
1.000000
1.000000
1.000000
1.000000
1.000000
1.000000
1.000000
1.000000
1.000000
1.000000
1.000000
1.000000
1.000000
1.000000
1.000000
1.000000
1.000000
1.000000
1.000000
1.000000
1.000000
1.000000
1.000000
1.000000
1.000000
1.000000
1.000000
1.000000
1.000000
1.000000
1.000000
1.000000
1.000000
1.000000
1.000000
1.000000
1.000000
1.000000
1.000000
1.000000
1.000000
1.000000
1.000000
1.000000
1.000000
1.000000
1.000000
1.000000
1.000000
1.000000
1.000000
1.000000
1.000000
1.000000
1.000000
1.000000
1.000000
1.000000
1.000000
1.000000
1.000000
1.000000
1.000000
1.000000
1.000000
1.000000
1.000000
1.000000
1.000000
1.000000
1.000000
1.000000
1.000000
1.000000
1.000000
1.000000
1.000000
1.000000
1.000000
1.000000
1.000000
1.000000
1.000000
1.000000
1.000000
1.000000
1.000000
1.000000
1.000000
1.000000
1.000000
1.000000
1.000000
1.000000
1.000000
1.000000
1.000000
1.000000
1.000000
1.000000
1.000000
1.000000
1.000000
1.000000
1.000000
1.000000
1.000000
1.000000
1.000000
1.000000
1.000000
1.000000
1.000000
1.000000
1.000000
1.000000
1.000000
1.000000
1.000000
1.000000
1.000000
1.000000
1.000000
1.000000
1.000000
1.000000
1.000000
1.000000
1.000000
1.000000
1.000000
1.000000
1.000000
1.000000
1.000000
1.000000
1.000000
1.000000
1.000000
1.000000
1.000000
1.000000
1.000000
1.000000
1.000000
1.000000
1.000000
1.000000
1.000000
1.000000
1.000000
1.000000
1.000000
1.000000
1.000000
1.000000
1.000000
1.000000
1.000000
1.000000
1.000000
1.000000
1.000000
1.000000
1.000000
1.000000
1.000000
1.000000
1.000000
1.000000
1.000000
1.000000
1.000000
1.000000
1.000000
1.000000
1.000000
1.000000
1.000000
1.000000
1.000000
1.000000
1.000000
1.000000
1.000000
1.000000
1.000000
1.000000
1.000000
1.000000
1.000000
1.000000
1.000000
1.000000
1.000000
1.000000
1.000000
1.000000
1.000000
1.000000
1.000000
1.000000
1.000000
1.000000
1.000000
1.000000
1.000000
1.000000
1.000000
1.000000
1.000000
1.000000
1.000000
1.000000
1.000000
1.000000
1.000000
1.000000
1.000000
1.000000
1.000000
1.000000
1.000000
1.000000
1.000000
1.000000
1.000000
1.000000
1.000000
1.000000
1.000000
1.000000
1.000000
1.000000
1.000000
1.000000
1.000000
1.000000
1.000000
1.000000
1.000000
1.000000
1.000000
1.000000
1.000000
1.000000
1.000000
1.000000
1.000000
1.000000
1.000000
1.000000
1.000000
1.000000
1.000000
1.000000
1.000000
1.000000
1.000000
1.000000
1.000000
1.000000
1.000000
1.000000
1.000000
1.000000
1.000000
1.000000
1.000000
1.000000
1.000000
1.000000
1.000000
1.000000
1.000000
1.000000
1.000000
1.000000
1.000000
1.000000
1.000000
1.000000
1.000000
1.000000
1.000000
1.000000
1.000000
1.000000
1.000000
1.000000
1.000000
1.000000
1.000000
1.000000
1.000000
1.000000
1.000000
1.000000
1.000000
1.000000
1.000000
1.000000
1.000000
1.000000
1.000000
1.000000
1.000000
1.000000
1.000000
1.000000
1.000000
1.000000
1.000000
1.000000
1.000000
1.000000
1.000000
1.000000
1.000000
1.000000
1.000000
1.000000
1.000000
1.000000
1.000000
1.000000
1.000000
1.000000
1.000000
1.000000
1.000000
1.000000
1.000000
1.000000
1.000000
1.000000
1.000000
1.000000
1.000000
1.000000
1.000000
1.000000
1.000000
1.000000
1.000000
1.000000
1.000000
1.000000
1.000000
1.000000
1.000000
1.000000
1.000000
1.000000
1.000000
1.000000
1.000000
1.000000
1.000000
1.000000
1.000000
1.000000
1.000000
1.000000
1.000000
1.000000
1.000000
1.000000
1.000000
1.000000
1.000000
1.000000
1.000000
1.000000
1.000000
1.000000
1.000000
1.000000
1.000000
1.000000
1.000000
1.000000
1.000000
1.000000
1.000000
1.000000
1.000000
1.000000
1.000000
1.000000
1.000000
1.000000
1.000000
1.000000
1.000000
1.000000
1.000000
1.000000
1.000000
1.000000
1.000000
1.000000
1.000000
1.000000
1.000000
1.000000
1.000000
1.000000
1.000000
1.000000
1.000000
1.000000
1.000000
1.000000
1.000000
1.000000
1.000000
1.000000
1.000000
1.000000
1.000000
1.000000
1.000000
1.000000
1.000000
1.000000
1.000000
1.000000
1.000000
1.000000
1.000000
1.000000
1.000000
1.000000
1.000000
1.000000
1.000000
1.000000
1.000000
1.000000
1.000000
1.000000
1.000000
1.000000
1.000000
1.000000
1.000000
1.000000
1.000000
1.000000
1.000000
1.000000
1.000000
1.000000
1.000000
1.000000
1.000000
1.000000
1.000000
1.000000
1.000000
1.000000
1.000000
1.000000
1.000000
1.000000
1.000000
1.000000
1.000000
1.000000
1.000000
1.000000
1.000000
1.000000
1.000000
1.000000
1.000000
1.000000
1.000000
1.000000
1.000000
1.000000
1.000000
1.000000
1.000000
1.000000
1.000000
1.000000
1.000000
1.000000
1.000000
1.000000
1.000000
1.000000
1.000000
1.000000
1.000000
1.000000
1.000000
1.000000
1.000000
1.000000
1.000000
1.000000
1.000000
1.000000
1.000000
1.000000
1.000000
1.000000
1.000000
1.000000
1.000000
1.000000
1.000000
1.000000
1.000000
1.000000
1.000000
1.000000
1.000000
1.000000
1.000000
1.000000
1.000000
1.000000
1.000000
1.000000
1.000000
1.000000
1.000000
1.000000
1.000000
1.000000
1.000000
1.000000
1.000000
1.000000
1.000000
1.000000
1.000000
1.000000
1.000000
1.000000
1.000000
1.000000
1.000000
1.000000
1.000000
1.000000
1.000000
1.000000
1.000000
1.000000
1.000000
1.000000
1.000000
1.000000
1.000000
1.000000
1.000000
1.000000
1.000000
1.000000
1.000000
1.000000
1.000000
1.000000
1.000000
1.000000
1.000000
1.000000
1.000000
1.000000
1.000000
1.000000
1.000000
1.000000
1.000000
1.000000
1.000000
1.000000
1.000000
1.000000
1.000000
1.000000
1.000000
1.000000
1.000000
1.000000
1.000000
1.000000
1.000000
1.000000
1.000000
1.000000
1.000000
1.000000
1.000000
1.000000
1.000000
1.000000
1.000000
1.000000
1.000000
1.000000
1.000000
1.000000
1.000000
1.000000
1.000000
1.000000
1.000000
1.000000
1.000000
1.000000
1.000000
1.000000
1.000000
1.000000
1.000000
1.000000
1.000000
1.000000
1.000000
1.000000
1.000000
1.000000
1.000000
1.000000
1.000000
1.000000
1.000000
1.000000
1.000000
1.000000
1.000000
1.000000
1.000000
1.000000
1.000000
1.000000
1.000000
1.000000
1.000000
1.000000
1.000000
1.000000
VECTORS v double
3.527249 7.546955 0.000000
-6.485580 -7.928298 0.000000
13.577933 3.504331 0.000000
-10.137381 -1.253775 0.000000
5.820157 -4.694096 0.000000
-2.250859 9.093120 0.000000
1.480637 13.575117 0.000000
6.340687 -0.016479 0.000000
6.494966 0.000037 0.000000
6.495858 -0.000000 0.000000
6.495884 0.000000 0.000000
6.495884 0.000000 0.000000
6.495884 -0.000000 0.000000
6.495884 -0.000000 0.000000
6.495884 -0.000000 0.000000
6.495858 0.000000 0.000000
6.494966 -0.000038 0.000000
6.340427 0.016606 0.000000
1.297212 -13.548281 0.000000
-2.245397 -9.090524 0.000000
5.924351 6.258888 0.000000
-9.489259 3.969462 0.000000
7.763039 -10.102898 0.000000
-6.584580 8.594088 0.000000
3.521491 -7.539916 0.000000
-2.631714 -13.726701 0.000000
6.649201 1.071962 0.000000
5.432457 -9.791121 0.000000
10.138357 1.540082 0.000000
-1.372630 1.933490 0.000000
-2.637126 -4.888796 0.000000
-9.756973 -2.177539 0.000000
2.911242 3.626212 0.000000
-6.430540 0.030731 0.000000
-6.501363 0.000040 0.000000
-6.501410 0.000000 0.000000
-6.501411 0.000000 0.000000
-6.501411 -0.000000 0.000000
-6.501411 -0.000000 0.000000
-6.501410 -0.000000 0.000000
-6.501363 -0.000040 0.000000
-6.431063 -0.030582 0.000000
2.863439 -3.644883 0.000000
-9.758174 2.178028 0.000000
-2.605366 4.815334 0.000000
-12.765583 -2.692528 0.000000
10.138565 -1.459723 0.000000
5.443162 9.782620 0.000000
6.649122 -1.072017 0.000000
-2.631714 13.726701 0.000000
0.261528 -9.190818 0.000000
3.918143 9.638445 0.000000
1.141087 4.928001 0.000000
6.282715 -3.331341 0.000000
10.001121 -0.267015 0.000000
2.650158 12.874214 0.000000
-1.359165 7.436162 0.000000
-2.605591 -5.696799 0.000000
6.441190 -0.042958 0.000000
6.497009 -0.000107 0.000000
6.497018 -0.000001 0.000000
6.497018 0.000000 0.000000
6.497018 -0.000000 0.000000
6.497018 -0.000000 0.000000
6.497018 0.000001 0.000000
6.497009 0.000106 0.000000
6.441576 0.042740 0.000000
-2.558414 5.712999 0.000000
-1.311488 -7.309831 0.000000
6.199638 0.462488 0.000000
10.001214 0.266529 0.000000
3.011780 6.986101 0.000000
-1.955074 -4.498920 0.000000
8.927929 -4.804129 0.000000
0.266055 9.189608 0.000000
-0.497333 -3.683079 0.000000
-6.897784 -10.619324 0.000000
-4.760124 -5.481213 0.000000
6.080189 -2.362675 0.000000
2.890645 -10.179102 0.000000
-10.431207 -5.052879 0.000000
9.804813 2.292618 0.000000
5.072670 1.102783 0.000000
14.516106 16.702932 0.000000
-6.522694 -0.000472 0.000000
-6.522571 -0.000002 0.000000
-6.522570 0.000000 0.000000
-6.522570 -0.000000 0.000000
-6.522570 -0.000000 0.000000
-6.522571 0.000002 0.000000
-6.522695 0.000478 0.000000
14.762064 -16.530078 0.000000
5.039893 -1.102031 0.000000
9.805185 -2.290918 0.000000
-14.524497 -6.771927 0.000000
4.887967 9.615336 0.000000
6.565287 -1.316315 0.000000
-4.988957 4.907657 0.000000
-6.897790 10.619322 0.000000
-0.497332 3.683080 0.000000
1.905915 -10.374471 0.000000
8.201736 4.305652 0.000000
-8.758535 -4.921967 0.000000
-2.841002 11.624127 0.000000
-6.623941 8.124913 0.000000
-8.106451 0.075049 0.000000
-9.979456 -1.059566 0.000000
-10.015873 0.005790 0.000000
-6.740534 -4.798193 0.000000
6.515450 -0.000220 0.000000
6.515358 -0.000001 0.000000
6.515357 0.000000 0.000000
6.515357 -0.000000 0.000000
6.515357 -0.000000 0.000000
6.515358 0.000001 0.000000
6.515452 0.000225 0.000000
-7.005735 4.499572 0.000000
-10.015602 -0.005768 0.000000
-9.979529 1.058628 0.000000
1.623260 -5.987314 0.000000
-4.510006 -2.702776 0.000000
10.950426 -2.477994 0.000000
-8.758255 4.902696 0.000000
8.116146 -4.330223 0.000000
-11.132430 0.411262 0.000000
-1.124221 -6.326591 0.000000
-1.993369 -10.927233 0.000000
5.656046 9.607862 0.000000
-7.766942 10.541325 0.000000
4.299336 8.834711 0.000000
-11.218940 1.946411 0.000000
-2.402405 3.089320 0.000000
-6.555145 -0.017513 0.000000
-6.576549 0.000193 0.000000
-6.577039 -0.000013 0.000000
-6.577054 -0.000001 0.000000
-6.577054 0.000000 0.000000
-6.577054 -0.000000 0.000000
-6.577054 -0.000000 0.000000
-6.577054 0.000001 0.000000
-6.577039 0.000013 0.000000
-6.576549 -0.000193 0.000000
-6.555162 0.017506 0.000000
-2.404838 -3.088465 0.000000
-10.004071 -0.025518 0.000000
3.415649 -10.182913 0.000000
-7.877940 -10.115011 0.000000
9.394070 -6.848257 0.000000
-1.992932 10.927357 0.000000
-1.124225 6.326593 0.000000
-0.130812 -4.462591 0.000000
1.469808 3.514332 0.000000
-3.261055 -9.047820 0.000000
6.188656 7.726751 0.000000
-12.124182 7.589337 0.000000
-10.080846 -0.177683 0.000000
2.257069 -2.223232 0.000000
6.546016 0.013521 0.000000
6.568758 -0.000140 0.000000
6.569344 0.000003 0.000000
6.569373 0.000000 0.000000
6.569373 0.000000 0.000000
6.569373 -0.000000 0.000000
6.569373 -0.000000 0.000000
6.569373 -0.000000 0.000000
6.569344 -0.000003 0.000000
6.568758 0.000140 0.000000
6.546035 -0.013517 0.000000
2.259599 2.224508 0.000000
-10.134006 0.141706 0.000000
-8.690453 -10.096010 0.000000
7.989665 -4.946870 0.000000
-8.906793 3.267922 0.000000
1.458629 -3.536782 0.000000
-0.128394 4.477258 0.000000
4.837053 -9.997753 0.000000
-5.302862 -7.739578 0.000000
1.742881 -3.420551 0.000000
-4.731825 6.363983 0.000000
9.307471 -1.835195 0.000000
-7.873053 0.403259 0.000000
-6.419323 0.155551 0.000000
-6.671146 0.000200 0.000000
-6.671446 -0.000000 0.000000
-6.671446 0.000000 0.000000
-6.671446 0.000000 0.000000
-6.671446 0.000000 0.000000
-6.671446 -0.000000 0.000000
-6.671446 -0.000000 0.000000
-6.671446 -0.000000 0.000000
-6.671446 -0.000000 0.000000
-6.671446 0.000000 0.000000
-6.671148 -0.000198 0.000000
-6.585200 -0.126901 0.000000
-7.968418 -0.485189 0.000000
9.149071 2.143852 0.000000
-4.963049 -7.332949 0.000000
1.739028 3.417826 0.000000
-8.101865 5.072862 0.000000
4.837053 9.997753 0.000000
-3.136961 -4.289341 0.000000
-9.864339 -1.586345 0.000000
6.295836 -7.151354 0.000000
7.387288 5.722407 0.000000
-7.842357 6.867884 0.000000
7.623335 -0.003273 0.000000
6.484946 -0.192327 0.000000
6.665299 -0.000548 0.000000
6.665415 -0.000003 0.000000
6.665415 -0.000000 0.000000
6.665415 -0.000000 0.000000
6.665415 0.000000 0.000000
6.665415 -0.000000 0.000000
6.665415 -0.000000 0.000000
6.665415 0.000000 0.000000
6.665415 -0.000000 0.000000
6.665415 0.000003 0.000000
6.665301 0.000552 0.000000
6.618391 0.147983 0.000000
7.725505 0.070281 0.000000
-7.745810 -7.091635 0.000000
8.587529 -5.293271 0.000000
6.113125 7.318303 0.000000
-9.864038 1.585248 0.000000
0.441680 8.118159 0.000000
-0.969132 9.425814 0.000000
-3.933248 -8.257651 0.000000
2.681454 -3.378239 0.000000
0.640305 -0.138335 0.000000
-1.241855 17.772785 0.000000
-7.466591 -0.855866 0.000000
-6.230391 -0.363582 0.000000
-6.792672 -0.000406 0.000000
-6.792656 -0.000003 0.000000
-6.792656 0.000000 0.000000
-6.792656 0.000000 0.000000
-6.792656 0.000000 0.000000
-6.792656 -0.000000 0.000000
-6.792656 -0.000000 0.000000
-6.792656 -0.000000 0.000000
-6.792656 -0.000000 0.000000
-6.792656 0.000003 0.000000
-6.792671 0.000402 0.000000
-6.201687 0.371594 0.000000
-8.032128 1.041402 0.000000
-1.236007 -17.757676 0.000000
-0.075123 0.983521 0.000000
2.691249 3.370042 0.000000
-3.933246 8.257647 0.000000
-0.973321 -9.417416 0.000000
-11.499282 -1.066459 0.000000
-9.982767 -1.108136 0.000000
-4.841427 8.615944 0.000000
-7.145739 -8.193359 0.000000
4.225762 -4.207056 0.000000
7.584812 0.872054 0.000000
6.077860 0.267448 0.000000
6.789325 0.000112 0.000000
6.789473 0.000000 0.000000
6.789473 0.000000 0.000000
6.789473 0.000000 0.000000
6.789473 0.000000 0.000000
6.789473 -0.000000 0.000000
6.789473 -0.000000 0.000000
6.789473 -0.000000 0.000000
6.789473 -0.000000 0.000000
6.789473 -0.000000 0.000000
6.789325 -0.000111 0.000000
6.044175 -0.272328 0.000000
7.958320 -1.176456 0.000000
4.338387 4.185913 0.000000
-7.735768 6.612750 0.000000
-4.834422 -8.626124 0.000000
-9.986907 1.113530 0.000000
-11.499289 1.066462 0.000000
-8.546252 -3.695279 0.000000
6.268073 -4.828076 0.000000
-0.741252 15.806490 0.000000
-7.184685 -7.081702 0.000000
-10.139761 0.104690 0.000000
-6.380768 -0.571619 0.000000
-6.913008 0.000173 0.000000
-6.913890 0.000004 0.000000
-6.913913 0.000000 0.000000
-6.913913 0.000000 0.000000
-6.913913 0.000000 0.000000
-6.913913 0.000000 0.000000
-6.913913 -0.000000 0.000000
-6.913913 -0.000000 0.000000
-6.913913 -0.000000 0.000000
-6.913913 -0.000000 0.000000
-6.913913 -0.000000 0.000000
-6.913890 -0.000004 0.000000
-6.913013 -0.000162 0.000000
-6.381824 0.568433 0.000000
-10.083018 -0.181415 0.000000
-7.338340 6.994787 0.000000
-0.616602 -15.774714 0.000000
6.271216 4.847546 0.000000
-8.546182 3.695363 0.000000
-9.997432 0.016536 0.000000
-8.962725 -3.436352 0.000000
3.633787 1.416386 0.000000
4.043041 5.605465 0.000000
-10.001407 0.065225 0.000000
6.308905 0.434992 0.000000
6.912651 -0.000170 0.000000