# vtk DataFile Version 4.0
hesp visualization file
ASCII
DATASET UNSTRUCTURED_GRID
POINTS 1250 double
32.596123 -3.505010 4.000000
31.234893 -2.151726 4.000000
33.660763 6.462683 4.000000
33.625316 8.026822 4.000000
28.129762 4.748544 4.000000
30.591727 13.092793 4.000000
29.853476 8.960587 4.000000
33.721284 9.141783 4.000000
34.580002 15.283160 4.000000
34.114811 13.056249 4.000000
33.706849 9.831416 4.000000
32.209601 15.782273 4.000000
33.079796 15.199837 4.000000
29.435572 17.461404 4.000000
30.894203 18.227141 4.000000
28.446883 15.376914 4.000000
29.993405 19.557704 4.000000
34.975555 16.517264 4.000000
27.844088 23.351080 4.000000
28.859628 17.021752 4.000000
36.298368 24.146001 4.000000
31.222014 32.592804 4.000000
35.307924 25.762522 4.000000
31.293875 33.411384 4.000000
30.919211 30.082129 4.000000
32.337423 -19.350938 4.000000
31.279307 1.390817 4.000000
35.541421 -8.758776 4.000000
31.963593 0.996977 4.000000
25.978285 10.960851 4.000000
30.721853 2.718212 4.000000
33.447982 7.317474 4.000000
31.256616 11.528018 4.000000
33.920888 11.861614 4.000000
31.371270 13.016839 4.000000
30.393782 12.501066 4.000000
27.712320 13.362959 4.000000
35.102490 15.954989 4.000000
32.195712 16.393305 4.000000
36.170669 14.734211 4.000000
30.874594 14.529244 4.000000
33.605982 18.586206 4.000000
32.007664 15.928066 4.000000
33.410892 21.115034 4.000000
31.594050 24.060249 4.000000
31.044696 25.712262 4.000000
32.825065 20.611260 4.000000
35.553595 37.921025 4.000000
31.450112 30.078318 4.000000
32.337423 48.534952 4.000000
31.825889 -8.244942 4.000000
33.861814 1.549557 4.000000
31.545252 0.654770 4.000000
28.395204 8.747593 4.000000
33.951997 -1.299430 4.000000
29.562284 10.407951 4.000000
30.830294 7.836209 4.000000
29.759938 6.442861 4.000000
30.761435 14.795123 4.000000
33.195916 10.211599 4.000000
31.220054 14.814638 4.000000
25.693293 15.839120 4.000000
37.110801 15.613638 4.000000
36.968513 13.628625 4.000000
33.440001 13.035546 4.000000
32.392604 14.874305 4.000000
30.475931 20.630684 4.000000
30.034749 20.895657 4.000000
29.775689 19.494038 4.000000
36.158068 13.832167 4.000000
30.229044 25.268702 4.000000
29.716359 19.827640 4.000000
32.087932 22.611630 4.000000
32.356402 31.453520 4.000000
31.727710 37.374925 4.000000
32.426833 -7.114350 4.000000
36.665337 -12.754473 4.000000
31.803848 4.427012 4.000000
38.221986 1.968200 4.000000
29.696139 1.319967 4.000000
32.697121 2.117560 4.000000
29.470967 8.376721 4.000000
29.185628 12.295126 4.000000
32.364406 7.427862 4.000000
34.068962 1.089298 4.000000
36.316042 14.930310 4.000000
33.164565 14.913255 4.000000
37.033897 9.463664 4.000000
31.095396 15.232491 4.000000
34.879198 16.254835 4.000000
29.771588 17.862800 4.000000
36.399511 18.744359 4.000000
31.923218 10.812896 4.000000
28.279540 23.281234 4.000000
30.390393 17.016583 4.000000
36.167622 28.646404 4.000000
37.055253 31.295988 4.000000
31.417769 26.798316 4.000000
36.665344 41.938486 4.000000
34.113742 35.024728 4.000000
30.501786 1.500070 4.000000
32.938167 0.511789 4.000000
30.140734 -11.798962 4.000000
31.599774 2.545287 4.000000
31.695889 6.550941 4.000000
30.983080 12.408916 4.000000
34.010558 7.029459 4.000000
37.214812 11.652844 4.000000
35.571314 7.127136 4.000000
35.140567 8.997003 4.000000
31.870433 15.434545 4.000000
31.360134 7.840694 4.000000
36.976504 19.022816 4.000000
32.632660 16.061825 4.000000
26.257049 18.431768 4.000000
37.654422 12.332631 4.000000
30.042326 20.367340 4.000000
31.397046 19.885670 4.000000
32.852367 22.919369 4.000000
32.248728 21.481737 4.000000
32.392821 23.755378 4.000000
34.518043 23.924278 4.000000
34.694033 38.323032 4.000000
33.180680 29.040458 4.000000
30.932266 30.712491 4.000000
30.624518 -7.065870 4.000000
31.030632 -13.032809 4.000000
37.290358 5.918543 4.000000
28.173581 3.339767 4.000000
32.190707 6.533011 4.000000
31.430083 7.061513 4.000000
28.565051 8.060904 4.000000
33.230220 11.269185 4.000000
31.030124 11.697208 4.000000
33.333919 7.849741 4.000000
29.991831 11.239686 4.000000
33.867414 12.566479 4.000000
32.316912 12.650987 4.000000
34.929286 13.632620 4.000000
31.646165 10.752818 4.000000
34.022753 13.976424 4.000000
35.284297 17.676133 4.000000
32.906126 25.158180 4.000000
29.628429 18.096783 4.000000
28.080740 26.527734 4.000000
30.324424 18.300566 4.000000
29.150247 18.989966 4.000000
43.631350 19.881992 4.000000
30.736147 41.082360 4.000000
30.140196 36.515091 4.000000
30.599408 -3.117302 4.000000
36.561713 -8.495673 4.000000
32.842925 -4.521990 4.000000
32.830043 3.561190 4.000000
28.288997 9.097986 4.000000
33.675256 5.514600 4.000000
33.406452 8.499302 4.000000
37.495048 13.921517 4.000000
28.416562 3.701865 4.000000
31.427466 8.665219 4.000000
29.848140 9.808607 4.000000
36.630098 16.105114 4.000000
33.243605 13.749381 4.000000
27.919574 15.218393 4.000000
34.591979 25.406827 4.000000
33.814516 17.186008 4.000000
32.478950 25.369198 4.000000
34.053451 21.355676 4.000000
29.831474 21.797118 4.000000
31.448509 23.322994 4.000000
33.505043 31.734850 4.000000
34.073489 19.103644 4.000000
30.632931 29.037495 4.000000
30.878620 31.652611 4.000000
32.521079 32.860397 4.000000
42.098595 -13.312773 4.000000
31.689462 -5.716890 4.000000
35.926070 -1.162174 4.000000
31.128394 4.620800 4.000000
31.290132 7.593333 4.000000
34.031193 2.455838 4.000000
36.245756 8.879310 4.000000
36.103721 10.961290 4.000000
30.792482 11.371692 4.000000
33.592114 12.604285 4.000000
31.934001 12.301973 4.000000
33.153607 12.934858 4.000000
33.399757 17.959432 4.000000
36.207942 20.698249 4.000000
34.370339 16.895444 4.000000
35.058110 15.024999 4.000000
36.527186 18.496647 4.000000
34.894566 22.880304 4.000000
35.003833 21.051876 4.000000
29.060950 21.528424 4.000000
32.393409 18.346479 4.000000
33.389483 20.059045 4.000000
35.460607 31.534652 4.000000
31.365711 17.586672 4.000000
42.098595 42.496787 4.000000
30.308534 -0.647426 4.000000
35.100514 0.363534 4.000000
36.488428 -9.168695 4.000000
38.065279 4.521154 4.000000
34.480813 8.580018 4.000000
35.557584 5.153536 4.000000
29.786749 14.161297 4.000000
35.146881 11.481222 4.000000
37.094125 7.910087 4.000000
33.892419 5.168239 4.000000
35.627550 6.174943 4.000000
37.926566 16.024110 4.000000
39.800232 15.214832 4.000000
35.170442 17.057715 4.000000
31.055226 19.935303 4.000000
35.890092 16.338566 4.000000
34.708579 17.527068 4.000000
37.005581 16.790469 4.000000
30.702766 16.256922 4.000000
31.267938 21.560813 4.000000
35.582150 19.595908 4.000000
33.511179 24.868895 4.000000
37.880974 34.710660 4.000000
25.334377 29.493676 4.000000
33.302463 33.666884 4.000000
32.413685 0.181347 4.000000
31.131981 -8.992271 4.000000
31.665728 -1.537200 4.000000
35.421709 1.875196 4.000000
34.672577 8.715059 4.000000
33.272430 2.853246 4.000000
38.704970 7.661455 4.000000
38.511305 13.239441 4.000000
33.862176 15.056379 4.000000
37.451030 11.683011 4.000000
31.720255 9.783885 4.000000
37.254798 14.285150 4.000000
32.607741 13.172564 4.000000
37.473362 18.662993 4.000000
35.566369 17.716392 4.000000
38.277847 15.260559 4.000000
37.231225 17.634322 4.000000
31.329102 20.584497 4.000000
33.114041 24.115005 4.000000
36.181151 21.717969 4.000000
35.082882 24.816432 4.000000
30.315791 26.900527 4.000000
32.046280 31.956701 4.000000
31.133171 38.176537 4.000000
32.262276 27.783978 4.000000
32.087391 -3.434040 4.000000
35.872559 -3.016120 4.000000
33.412607 5.014677 4.000000
33.328482 0.967457 4.000000
34.255384 5.073424 4.000000
42.330780 7.170350 4.000000
28.662251 7.511592 4.000000
35.493559 12.765591 4.000000
33.200014 8.889144 4.000000
38.087170 16.283421 4.000000
35.852404 13.105672 4.000000
37.627192 4.781666 4.000000
36.777733 12.924826 4.000000
36.852351 14.612643 4.000000
36.829286 17.023135 4.000000
38.044436 14.198538 4.000000
33.210776 16.184532 4.000000
34.543316 14.734821 4.000000
30.316913 21.442780 4.000000
34.189350 23.431221 4.000000
35.525841 20.883874 4.000000
28.517304 31.563639 4.000000
36.565964 27.347661 4.000000
33.546171 26.602175 4.000000
32.102086 32.245879 4.000000
30.304836 -8.336723 4.000000
32.550587 -7.363440 4.000000
34.629262 12.657763 4.000000
33.954434 4.439750 4.000000
38.197966 12.199264 4.000000
32.553631 9.107993 4.000000
36.523707 8.544503 4.000000
31.926847 9.006208 4.000000
34.146858 11.528272 4.000000
36.950031 13.272044 4.000000
38.779418 12.279221 4.000000
37.785765 11.774478 4.000000
35.024835 21.540525 4.000000
34.835132 18.314845 4.000000
38.517583 18.756647 4.000000
34.320372 18.149492 4.000000
37.269065 19.500338 4.000000
39.587501 22.684265 4.000000
34.112631 20.878314 4.000000
35.507675 22.920273 4.000000
36.481739 29.029296 4.000000
30.307510 28.628791 4.000000
40.570071 19.208621 4.000000
33.988838 36.357769 4.000000
30.799822 36.312229 4.000000
30.247501 -2.789375 4.000000
31.918517 -6.150802 4.000000
38.578218 0.430036 4.000000
37.421693 6.300616 4.000000
35.397268 4.181552 4.000000
36.708194 8.026081 4.000000
35.629675 5.550748 4.000000
31.167756 6.328756 4.000000
34.478598 12.254946 4.000000
39.368057 12.359133 4.000000
38.185149 8.510790 4.000000
36.823732 11.990041 4.000000
40.433591 18.682758 4.000000
38.665453 15.533081 4.000000
37.357204 22.850985 4.000000
35.569738 18.598378 4.000000
34.738784 18.780955 4.000000
35.133700 20.190457 4.000000
37.094758 19.675410 4.000000
36.386840 25.082859 4.000000
39.939677 21.333716 4.000000
33.399463 20.420141 4.000000
34.739637 37.483738 4.000000
29.362275 34.005194 4.000000
34.638389 35.817299 4.000000
32.917967 -2.743773 4.000000
34.153832 -3.063233 4.000000
31.304254 -5.468656 4.000000
35.342700 0.035797 4.000000
34.079785 3.858616 4.000000
38.642621 4.264617 4.000000
38.372860 6.262381 4.000000
43.825855 8.007912 4.000000
34.602910 10.973653 4.000000
39.575089 11.786918 4.000000
32.477861 11.480875 4.000000
38.751289 16.405906 4.000000
35.155356 14.439008 4.000000
38.478265 16.616827 4.000000
41.526869 14.104502 4.000000
33.315298 21.835286 4.000000
36.458575 16.951654 4.000000
33.346873 19.195304 4.000000
33.307016 23.687212 4.000000
[...]
POINT_DATA 1250
SCALARS m double
LOOKUP_TABLE default
1.000000
1.000000
1.000000
1.000000
1.000000
1.000000
1.000000
1.000000
1.000000
1.000000
1.000000
1.000000
1.000000
1.000000
1.000000
1.000000
1.000000
1.000000
1.000000
1.000000
1.000000
1.000000
1.000000
1.000000
1.000000
1.000000
1.000000
1.000000
1.000000
1.000000
1.000000
1.000000
1.000000
1.000000
1.000000
1.000000
1.000000
1.000000
1.000000
1.000000
1.000000
1.000000
1.000000
1.000000
1.000000
1.000000
1.000000
1.000000
1.000000
1.000000
1.000000
1.000000
1.000000
1.000000
1.000000
1.000000
1.000000
1.000000
1.000000
1.000000
1.000000
1.000000
1.000000
1.000000
1.000000
1.000000
1.000000
1.000000
1.000000
1.000000
1.000000
1.000000
1.000000
1.000000
1.000000
1.000000
1.000000
1.000000
1.000000
1.000000
1.000000
1.000000
1.000000
1.000000
1.000000
1.000000
1.000000
1.000000
1.000000
1.000000
1.000000
1.000000
1.000000
1.000000
1.000000
1.000000
1.000000
1.000000
1.000000
1.000000
1.000000
1.000000
1.000000
1.000000
1.000000
1.000000
1.000000
1.000000
1.000000
1.000000
1.000000
1.000000
1.000000
1.000000
1.000000
1.000000
1.000000
1.000000
1.000000
1.000000
1.000000
1.000000
1.000000
1.000000
1.000000
1.000000
1.000000
1.000000
1.000000
1.000000
1.000000
1.000000
1.000000
1.000000
1.000000
1.000000
1.000000
1.000000
1.000000
1.000000
1.000000
1.000000
1.000000
1.000000
1.000000
1.000000
1.000000
1.000000
1.000000
1.000000
1.000000
1.000000
1.000000
1.000000
1.000000
1.000000
1.000000
1.000000
1.000000
1.000000
1.000000
1.000000
1.000000
1.000000
1.000000
1.000000
1.000000
1.000000
1.000000
1.000000
1.000000
1.000000
1.000000
1.000000
1.000000
1.000000
1.000000
1.000000
1.000000
1.000000
1.000000
1.000000
1.000000
1.000000
1.000000
1.000000
1.000000
1.000000
1.000000
1.000000
1.000000
1.000000
1.000000
1.000000
1.000000
1.000000
1.000000
1.000000
1.000000
1.000000
1.000000
1.000000
1.000000
1.000000
1.000000
1.000000
1.000000
1.000000
1.000000
1.000000
1.000000
1.000000
1.000000
1.000000
1.000000
1.000000
1.000000
1.000000
1.000000
1.000000
1.000000
1.000000
1.000000
1.000000
1.000000
1.000000
1.000000
1.000000
1.000000
1.000000
1.000000
1.000000
1.000000
1.000000
1.000000
1.000000
1.000000
1.000000
1.000000
1.000000
1.000000
1.000000
1.000000
1.000000
1.000000
1.000000
1.000000
1.000000
1.000000
1.000000
1.000000
1.000000
1.000000
1.000000
1.000000
1.000000
1.000000
1.000000
1.000000
1.000000
1.000000
1.000000
1.000000
1.000000
1.000000
1.000000
1.000000
1.000000
1.000000
1.000000
1.000000
1.000000
1.000000
1.000000
1.000000
1.000000
1.000000
1.000000
1.000000
1.000000
1.000000
1.000000
1.000000
1.000000
1.000000
1.000000
1.000000
1.000000
1.000000
1.000000
1.000000
1.000000
1.000000
1.000000
1.000000
1.000000
1.000000
1.000000
1.000000
1.000000
1.000000
1.000000
1.000000
1.000000
1.000000
1.000000
1.000000
1.000000
1.000000
1.000000
1.000000
1.000000
1.000000
1.000000
1.000000
1.000000
1.000000
1.000000
1.000000
1.000000
1.000000
1.000000
1.000000
1.000000
1.000000
1.000000
1.000000
1.000000
1.000000
1.000000
1.000000
1.000000
1.000000
1.000000
1.000000
1.000000
1.000000
1.000000
1.000000
1.000000
1.000000
1.000000
1.000000
1.000000
1.000000
1.000000
1.000000
1.000000
1.000000
1.000000
1.000000
1.000000
1.000000
1.000000
1.000000
1.000000
1.000000
1.000000
1.000000
1.000000
1.000000
1.000000
1.000000
1.000000
1.000000
1.000000
1.000000
1.000000
1.000000
1.000000
1.000000
1.000000
1.000000
1.000000
1.000000
1.000000
1.000000
1.000000
1.000000
1.000000
1.000000
1.000000
1.000000
1.000000
1.000000
1.000000
1.000000
1.000000
1.000000
1.000000
1.000000
1.000000
1.000000
1.000000
1.000000
1.000000
1.000000
1.000000
1.000000
1.000000
1.000000
1.000000
1.000000
1.000000
1.000000
1.000000
1.000000
1.000000
1.000000
1.000000
1.000000
1.000000
1.000000
1.000000
1.000000
1.000000
1.000000
1.000000
1.000000
1.000000
1.000000
1.000000
1.000000
1.000000
1.000000
1.000000
1.000000
1.000000
1.000000
1.000000
1.000000
1.000000
1.000000
1.000000
1.000000
1.000000
1.000000
1.000000
1.000000
1.000000
1.000000
1.000000
1.000000
1.000000
1.000000
1.000000
1.000000
1.000000
1.000000
1.000000
1.000000
1.000000
1.000000
1.000000
1.000000
1.000000
1.000000
1.000000
1.000000
1.000000
1.000000
1.000000
1.000000
1.000000
1.000000
1.000000
1.000000
1.000000
1.000000
1.000000
1.000000
1.000000
1.000000
1.000000
1.000000
1.000000
1.000000
1.000000
1.000000
1.000000
1.000000
1.000000
1.000000
1.000000
1.000000
1.000000
1.000000
1.000000
1.000000
1.000000
1.000000
1.000000
1.000000
1.000000
1.000000
1.000000
1.000000
1.000000
1.000000
1.000000
1.000000
1.000000
1.000000
1.000000
1.000000
1.000000
1.000000
1.000000
1.000000
1.000000
1.000000
1.000000
1.000000
1.000000
1.000000
1.000000
1.000000
1.000000
1.000000
1.000000
1.000000
1.000000
1.000000
1.000000
1.000000
1.000000
1.000000
1.000000
1.000000
1.000000
1.000000
1.000000
1.000000
1.000000
1.000000
1.000000
1.000000
1.000000
1.000000
1.000000
1.000000
1.000000
1.000000
1.000000
1.000000
1.000000
1.000000
1.000000
1.000000
1.000000
1.000000
1.000000
1.000000
1.000000
1.000000
1.000000
1.000000
1.000000
1.000000
1.000000
1.000000
1.000000
1.000000
1.000000
1.000000
1.000000
1.000000
1.000000
1.000000
1.000000
1.000000
1.000000
1.000000
1.000000
1.000000
1.000000
1.000000
1.000000
1.000000
1.000000
1.000000
1.000000
1.000000
1.000000
1.000000
1.000000
1.000000
1.000000
1.000000
1.000000
1.000000
1.000000
1.000000
1.000000
1.000000
1.000000
1.000000
1.000000
1.000000
1.000000
1.000000
1.000000
1.000000
1.000000
1.000000
1.000000
1.000000
1.000000
1.000000
1.000000
1.000000
1.000000
1.000000
1.000000
1.000000
1.000000
1.000000
1.000000
1.000000
1.000000
1.000000
1.000000
1.000000
1.000000
1.000000
1.000000
1.000000
1.000000
1.000000
1.000000
1.000000
1.000000
1.000000
1.000000
1.000000
1.000000
1.000000
1.000000
1.000000
1.000000
1.000000
1.000000
1.000000
1.000000
1.000000
1.000000
1.000000
1.000000
1.000000
1.000000
1.000000
1.000000
1.000000
1.000000
1.000000
1.000000
1.000000
1.000000
1.000000
1.000000
1.000000
1.000000
1.000000
1.000000
1.000000
1.000000
1.000000
1.000000
1.000000
1.000000
1.000000
1.000000
1.000000
1.000000
1.000000
1.000000
1.000000
1.000000
1.000000
1.000000
1.000000
1.000000
1.000000
1.000000
1.000000
1.000000
1.000000
1.000000
1.000000
1.000000
1.000000
1.000000
1.000000
1.000000
1.000000
1.000000
1.000000
1.000000
1.000000
1.000000
1.000000
1.000000
1.000000
1.000000
1.000000
1.000000
1.000000
1.000000
1.000000
1.000000
1.000000
1.000000
1.000000
1.000000
1.000000
1.000000
1.000000
1.000000
1.000000
1.000000
1.000000
1.000000
1.000000
1.000000
1.000000
1.000000
1.000000
1.000000
1.000000
1.000000
1.000000
1.000000
1.000000
1.000000
1.000000
1.000000
1.000000
1.000000
1.000000
1.000000
1.000000
1.000000
1.000000
1.000000
1.000000
1.000000
1.000000
1.000000
1.000000
1.000000
1.000000
1.000000
1.000000
1.000000
1.000000
1.000000
1.000000
1.000000
1.000000
1.000000
1.000000
1.000000
1.000000
1.000000
1.000000
1.000000
1.000000
1.000000
1.000000
1.000000
1.000000
1.000000
1.000000
1.000000
1.000000
1.000000
1.000000
1.000000
1.000000
1.000000
1.000000
1.000000
1.000000
1.000000
1.000000
1.000000
1.000000
1.000000
1.000000
1.000000
1.000000
1.000000
1.000000
1.000000
1.000000
1.000000
1.000000
1.000000
1.000000
1.000000
1.000000
1.000000
1.000000
1.000000
1.000000
1.000000
1.000000
1.000000
1.000000
1.000000
1.000000
1.000000
1.000000
1.000000
1.000000
1.000000
1.000000
1.000000
1.000000
1.000000
1.000000
1.000000
1.000000
1.000000
1.000000
1.000000
1.000000
1.000000
1.000000
1.000000
1.000000
1.000000
1.000000
1.000000
1.000000
1.000000
1.000000
1.000000
1.000000
1.000000
1.000000
1.000000
1.000000
1.000000
1.000000
1.000000
1.000000
1.000000
1.000000
1.000000
1.000000
1.000000
1.000000
1.000000
1.000000
1.000000
1.000000
1.000000
1.000000
1.000000
1.000000
1.000000
1.000000
1.000000
1.000000
1.000000
1.000000
1.000000
1.000000
1.000000
1.000000
1.000000
1.000000
1.000000
1.000000
1.000000
1.000000
1.000000
1.000000
1.000000
1.000000
1.000000
1.000000
1.000000
1.000000
1.000000
1.000000
1.000000
1.000000
1.000000
1.000000
1.000000
1.000000
1.000000
1.000000
1.000000
1.000000
1.000000
1.000000
1.000000
1.000000
1.000000
1.000000
1.000000
1.000000
1.000000
1.000000
1.000000
1.000000
1.000000
1.000000
1.000000
1.000000
1.000000
1.000000
1.000000
1.000000
1.000000
1.000000
1.000000
1.000000
1.000000
1.000000
1.000000
1.000000
1.000000
1.000000
1.000000
1.000000
1.000000
1.000000
1.000000
1.000000
1.000000
1.000000
1.000000
1.000000
1.000000
1.000000
1.000000
1.000000
1.000000
1.000000
1.000000
1.000000
1.000000
1.000000
1.000000
1.000000
1.000000
1.000000
1.000000
1.000000
1.000000
1.000000
1.000000
1.000000
1.000000
1.000000
1.000000
1.000000
1.000000
1.000000
1.000000
1.000000
1.000000
1.000000
1.000000
1.000000
1.000000
1.000000
1.000000
1.000000
1.000000
1.000000
1.000000
1.000000
1.000000
1.000000
1.000000
1.000000
1.000000
1.000000
1.000000
1.000000
1.000000
1.000000
1.000000
1.000000
1.000000
1.000000
1.000000
1.000000
1.000000
1.000000
1.000000
1.000000
1.000000
1.000000
1.000000
1.000000
1.000000
1.000000
1.000000
1.000000
1.000000
1.000000
1.000000
1.000000
1.000000
1.000000
1.000000
1.000000
1.000000
1.000000
1.000000
1.000000
1.000000
1.000000
1.000000
1.000000
1.000000
1.000000
1.000000
1.000000
1.000000
1.000000
1.000000
1.000000
1.000000
1.000000
1.000000
1.000000
1.000000
1.000000
1.000000
1.000000
1.000000
1.000000
1.000000
1.000000
1.000000
1.000000
1.000000
1.000000
1.000000
1.000000
1.000000
1.000000
1.000000
1.000000
1.000000
1.000000
1.000000
1.000000
1.000000
1.000000
1.000000
1.000000
1.000000
1.000000
1.000000
1.000000
1.000000
1.000000
1.000000
1.000000
1.000000
1.000000
1.000000
1.000000
1.000000
1.000000
1.000000
1.000000
1.000000
1.000000
1.000000
1.000000
1.000000
1.000000
1.000000
1.000000
1.000000
1.000000
1.000000
1.000000
1.000000
1.000000
1.000000
1.000000
1.000000
1.000000
1.000000
1.000000
1.000000
1.000000
1.000000
1.000000
1.000000
1.000000
1.000000
1.000000
1.000000
1.000000
1.000000
1.000000
1.000000
1.000000
1.000000
1.000000
1.000000
1.000000
1.000000
1.000000
1.000000
1.000000
1.000000
1.000000
1.000000
1.000000
1.000000
1.000000
1.000000
1.000000
1.000000
1.000000
1.000000
1.000000
1.000000
1.000000
1.000000
1.000000
1.000000
1.000000
1.000000
1.000000
1.000000
1.000000
1.000000
1.000000
1.000000
1.000000
1.000000
1.000000
1.000000
1.000000
1.000000
1.000000
1.000000
1.000000
1.000000
1.000000
1.000000
1.000000
1.000000
1.000000
1.000000
1.000000
1.000000
1.000000
1.000000
1.000000
1.000000
1.000000
1.000000
1.000000
1.000000
1.000000
1.000000
1.000000
1.000000
1.000000
1.000000
1.000000
1.000000
1.000000
1.000000
1.000000
1.000000
1.000000
1.000000
1.000000
1.000000
1.000000
1.000000
1.000000
1.000000
1.000000
1.000000
1.000000
1.000000
1.000000
1.000000
1.000000
1.000000
1.000000
1.000000
1.000000
1.000000
1.000000
1.000000
1.000000
1.000000
1.000000
1.000000
1.000000
1.000000
1.000000
1.000000
1.000000
1.000000
1.000000
1.000000
1.000000
1.000000
1.000000
1.000000
1.000000
1.000000
1.000000
1.000000
1.000000
1.000000
1.000000
1.000000
1.000000
1.000000
1.000000
1.000000
1.000000
1.000000
1.000000
1.000000
1.000000
1.000000
1.000000
1.000000
1.000000
1.000000
1.000000
1.000000
1.000000
1.000000
1.000000
1.000000
1.000000
1.000000
1.000000
1.000000
VECTORS v double
-8.466886 -13.428337 0.000000
-1.901447 -7.592196 0.000000
0.130768 -1.113589 0.000000
6.559522 3.748117 0.000000
-6.580029 0.755562 0.000000
-0.923219 4.882527 0.000000
-14.072170 1.966546 0.000000
4.672830 -8.166959 0.000000
12.323134 -1.774696 0.000000
-12.739182 1.034912 0.000000
1.993240 -13.883119 0.000000
9.029608 0.290503 0.000000
0.862846 7.770733 0.000000
-7.764279 7.491828 0.000000
-4.083702 0.479395 0.000000
-3.695118 2.320373 0.000000
-9.714726 0.770841 0.000000
9.030369 0.308473 0.000000
8.310995 5.005420 0.000000
4.142957 11.134735 0.000000
10.143854 6.367434 0.000000
7.144642 12.158726 0.000000
-3.846759 11.713447 0.000000
-2.616402 19.242721 0.000000
1.150891 3.527704 0.000000
2.630965 -13.726701 0.000000
-2.239439 0.192328 0.000000
5.362178 -9.594285 0.000000
0.212693 -7.477830 0.000000
-5.943817 18.543417 0.000000
2.082472 -6.751152 0.000000
1.693292 -3.418837 0.000000
1.992999 12.616147 0.000000
-7.865863 -6.189005 0.000000
-4.822308 2.487923 0.000000
-5.437573 9.452180 0.000000
2.924384 5.785638 0.000000
7.674188 4.180146 0.000000
8.673400 -4.751733 0.000000
5.990689 -8.392783 0.000000
2.827088 -3.750632 0.000000
4.846099 9.218887 0.000000
2.110484 -0.581937 0.000000
10.338636 9.438653 0.000000
1.309591 0.132037 0.000000
-4.098887 6.969534 0.000000
-0.441025 1.318734 0.000000
5.253360 9.477539 0.000000
-0.315274 7.895834 0.000000
2.630965 13.726701 0.000000
-0.083404 -9.568998 0.000000
-1.178463 -7.500302 0.000000
-6.924880 -5.730756 0.000000
-3.564806 6.954574 0.000000
-10.408898 -12.935470 0.000000
-2.537188 -5.888901 0.000000
-14.812895 -5.998117 0.000000
-2.413648 5.086933 0.000000
4.324917 5.316685 0.000000
11.882364 9.809452 0.000000
-1.773009 18.694174 0.000000
3.891182 -4.761950 0.000000
5.039824 12.258228 0.000000
-0.470477 -12.527044 0.000000
-3.675680 0.308765 0.000000
1.159808 -8.972730 0.000000
3.245997 -1.167169 0.000000
-0.495730 0.317602 0.000000
-8.369990 14.430214 0.000000
0.984958 -9.395216 0.000000
-5.779476 -3.257445 0.000000
-15.060393 5.151273 0.000000
-4.183740 6.722806 0.000000
-4.142249 10.081736 0.000000
-0.278876 9.468596 0.000000
1.266741 -7.626293 0.000000
6.835050 -10.617898 0.000000
-0.775149 -1.405222 0.000000
3.781784 -3.292493 0.000000
-4.272188 -4.999308 0.000000
4.339832 -2.027286 0.000000
-0.914849 8.813082 0.000000
-4.492130 0.916083 0.000000
7.872487 -1.780838 0.000000
-2.973433 -13.095718 0.000000
-1.497040 -2.486072 0.000000
2.137982 -9.282407 0.000000
0.010857 -10.823651 0.000000
3.506947 -9.183817 0.000000
-9.196224 6.455949 0.000000
3.681177 -3.868661 0.000000
2.049794 8.694162 0.000000
-0.639332 -10.748337 0.000000
-5.465048 -2.259374 0.000000
-2.555029 -9.059341 0.000000
-4.405417 10.630213 0.000000
4.009684 7.009473 0.000000
4.878161 -8.183975 0.000000
6.835055 10.617898 0.000000
8.752907 6.233807 0.000000
-9.546267 -0.053339 0.000000
-0.385402 -11.695134 0.000000
-4.803275 -11.748992 0.000000
0.505589 -15.197361 0.000000
-0.670691 -13.765387 0.000000
11.440896 -16.591090 0.000000
6.209756 -4.777823 0.000000
6.519793 4.490166 0.000000
11.785020 -8.848010 0.000000
7.866575 -13.739630 0.000000
-13.616370 10.806482 0.000000
5.015100 -5.676893 0.000000
6.802448 1.283761 0.000000
-3.181279 -0.668335 0.000000
-3.792721 7.949565 0.000000
0.272792 -5.445859 0.000000
1.509476 4.581826 0.000000
-5.234977 15.870850 0.000000
-1.039758 -8.183026 0.000000
0.571695 0.238823 0.000000
-6.886588 0.595124 0.000000
-3.147802 8.797880 0.000000
-1.015030 18.019385 0.000000
-0.407545 7.108975 0.000000
3.619118 10.722440 0.000000
4.769413 -4.489772 0.000000
-0.238938 -17.691456 0.000000
-9.986050 1.328021 0.000000
-6.690125 -4.769808 0.000000
-0.866987 1.725255 0.000000
4.246371 -2.249317 0.000000
-7.017145 -3.062939 0.000000
1.775842 -19.298172 0.000000
4.986160 2.139275 0.000000
4.074790 -1.726591 0.000000
0.779528 0.712446 0.000000
-1.903636 2.132951 0.000000
0.083712 -7.897256 0.000000
6.161240 -1.327964 0.000000
7.234602 -2.608086 0.000000
-3.214849 -11.129529 0.000000
3.057487 14.282226 0.000000
-3.011400 -1.558753 0.000000
-4.841903 -2.223425 0.000000
-3.936256 7.860863 0.000000
8.303117 -8.169649 0.000000
-1.671813 1.052415 0.000000
10.601261 -8.998519 0.000000
-1.995469 10.927773 0.000000
-3.749519 9.295981 0.000000
-2.681732 -6.637390 0.000000
2.759923 -12.811595 0.000000
3.165287 -10.664504 0.000000
2.513551 5.307548 0.000000
5.880596 1.036813 0.000000
13.560355 -4.851781 0.000000
-1.826274 3.962433 0.000000
-1.758907 -7.393792 0.000000
-7.482984 -20.359339 0.000000
0.878389 -0.812701 0.000000
-5.058604 -6.964468 0.000000
6.571283 -1.434549 0.000000
-8.496082 -0.629325 0.000000
-15.027708 -8.183808 0.000000
-0.701302 7.968155 0.000000
3.531692 -4.799658 0.000000
2.328882 4.242958 0.000000
-3.777166 -6.213054 0.000000
6.245009 8.377651 0.000000
6.718210 9.608249 0.000000
2.726142 15.423086 0.000000
13.544166 16.860445 0.000000
-2.384997 4.169369 0.000000
-7.464094 11.729422 0.000000
2.646339 6.998820 0.000000
4.837053 -9.997753 0.000000
-5.280984 -9.024249 0.000000
-5.211040 -6.070710 0.000000
-3.168536 -6.685164 0.000000
3.091944 -11.471389 0.000000
7.116950 -7.978299 0.000000
5.042501 -2.321663 0.000000
-8.582959 4.354655 0.000000
1.152596 -4.962276 0.000000
-4.536499 -5.780101 0.000000
-1.670899 -6.112388 0.000000
-7.056702 0.611053 0.000000
-6.285294 -4.867054 0.000000
-8.517071 8.552792 0.000000
1.341513 -0.667488 0.000000
-0.321536 -8.090868 0.000000
2.979776 1.922114 0.000000
-3.371004 -4.865242 0.000000
1.693869 11.707416 0.000000
-4.919460 1.785762 0.000000
0.773615 -11.489239 0.000000
6.745708 -2.053868 0.000000
-1.110385 5.722679 0.000000
-7.702441 -3.964372 0.000000
4.837053 9.997753 0.000000
2.774350 -4.426066 0.000000
11.904442 -4.619087 0.000000
3.581039 -20.258239 0.000000
13.656812 -12.563315 0.000000
0.421396 5.752409 0.000000
0.429993 -3.565155 0.000000
12.988600 -4.466679 0.000000
-6.109144 -0.918372 0.000000
-8.447831 0.368915 0.000000
-9.592591 -7.592958 0.000000
-2.029049 -11.779982 0.000000
1.429449 0.910091 0.000000
2.759439 -2.231151 0.000000
4.973789 1.785149 0.000000
-2.250451 9.969381 0.000000
-6.369668 -0.328490 0.000000
2.870041 0.860639 0.000000
5.237005 0.591144 0.000000
-2.172497 -4.901347 0.000000
-1.213974 4.837648 0.000000
3.967133 -2.403008 0.000000
-10.174819 6.847516 0.000000
0.924466 7.847824 0.000000
1.316057 7.175981 0.000000
-7.997319 8.717478 0.000000
12.109348 -3.682927 0.000000
-3.934992 -8.247644 0.000000
1.268423 -1.343672 0.000000
5.143732 -6.423967 0.000000
2.274502 -3.057297 0.000000
-7.403007 8.891814 0.000000
4.532538 4.260168 0.000000
0.575407 6.415528 0.000000
7.190043 4.540940 0.000000
6.604954 -3.305684 0.000000
-5.991238 -4.361134 0.000000
3.523130 1.990704 0.000000
-7.411562 -4.295677 0.000000
-8.152046 2.119059 0.000000
-0.317793 10.394039 0.000000
5.983537 -2.032771 0.000000
10.695989 -4.894582 0.000000
-11.703411 -2.313970 0.000000
7.501113 0.078982 0.000000
-13.505260 -4.246432 0.000000
4.507512 -2.882785 0.000000
-10.955282 2.781251 0.000000
-2.378396 8.328187 0.000000
-3.931935 8.248651 0.000000
-0.856201 -2.114589 0.000000
1.925629 0.363794 0.000000
5.490593 -5.648578 0.000000
-10.734329 2.196645 0.000000
3.916652 -4.333058 0.000000
-2.934620 -4.026044 0.000000
10.415071 -5.901933 0.000000
-7.992634 1.488469 0.000000
13.069735 -2.794733 0.000000
-6.980613 -0.698497 0.000000
-14.830203 9.754196 0.000000
8.782370 2.505089 0.000000
-2.036642 -6.421656 0.000000
-2.342818 -2.640933 0.000000
6.825828 -0.674063 0.000000
-6.067833 7.912519 0.000000
-1.885516 4.426829 0.000000
-9.959172 -4.594428 0.000000
2.228355 2.819435 0.000000
0.427855 6.041387 0.000000
-8.009260 18.338824 0.000000
-8.523416 -5.357270 0.000000
-5.827116 9.404049 0.000000
-1.102826 -3.415358 0.000000
3.239535 10.103181 0.000000
7.618363 9.915888 0.000000
-4.026778 -15.920601 0.000000
-3.400297 -13.540988 0.000000
-6.223192 3.397708 0.000000
11.054294 5.103425 0.000000
9.730881 -6.853082 0.000000
-10.407376 -9.492451 0.000000
0.740054 -3.927810 0.000000
-8.160014 3.380950 0.000000
-8.667221 -0.513588 0.000000
-1.947030 6.621015 0.000000
17.681793 -5.035612 0.000000
0.907491 -7.142644 0.000000
-6.702392 11.415886 0.000000
5.076434 4.239952 0.000000
7.001077 9.201031 0.000000
7.922809 11.166493 0.000000
4.516303 12.659193 0.000000
3.399819 6.659651 0.000000
-13.311004 -0.668716 0.000000
-1.468649 -3.880209 0.000000
-2.956012 6.132168 0.000000
-4.447861 4.243056 0.000000
-2.964055 2.868671 0.000000
2.162838 11.757293 0.000000
2.344627 8.328758 0.000000
-7.063967 -8.277362 0.000000
6.877662 -16.440811 0.000000
-11.652469 -6.101826 0.000000
-7.101037 -6.222506 0.000000
-10.295418 -3.384914 0.000000
-6.737280 -9.986305 0.000000