# vtk DataFile Version 4.0
hesp visualization file
ASCII
DATASET UNSTRUCTURED_GRID
POINTS 1250 double
33.449613 3.960432 4.000000
30.881990 1.345946 4.000000
35.330425 4.782541 4.000000
33.268808 4.931021 4.000000
32.356758 6.676985 4.000000
30.134375 9.120306 4.000000
31.043719 9.895249 4.000000
30.695792 9.294613 4.000000
30.695748 10.083905 4.000000
30.423938 11.225756 4.000000
30.423496 12.347086 4.000000
30.423495 13.469545 4.000000
30.423495 14.592007 4.000000
30.423495 15.714469 4.000000
30.423496 16.836927 4.000000
30.423800 17.958356 4.000000
30.678228 19.113700 4.000000
30.477392 19.665020 4.000000
31.462030 19.939954 4.000000
30.206668 20.187036 4.000000
32.585490 24.224902 4.000000
30.910528 26.029314 4.000000
33.533336 24.447443 4.000000
30.947942 27.979405 4.000000
33.159223 26.248117 4.000000
30.177035 -8.095044 4.000000
33.786650 1.941057 4.000000
31.128903 -0.865422 4.000000
30.606373 5.394501 4.000000
30.407194 5.895885 4.000000
30.694439 7.216281 4.000000
30.246334 7.445860 4.000000
31.553333 10.080213 4.000000
31.670095 11.320142 4.000000
30.902294 11.222268 4.000000
30.902288 12.347075 4.000000
30.902288 13.469545 4.000000
30.902288 14.592007 4.000000
30.902288 15.714469 4.000000
30.902288 16.836938 4.000000
30.902281 17.961532 4.000000
32.092839 18.381512 4.000000
30.848186 18.902021 4.000000
31.869672 20.141876 4.000000
30.623172 23.110323 4.000000
30.431325 23.401132 4.000000
31.962697 24.318007 4.000000
31.133228 30.046031 4.000000
33.789469 27.236340 4.000000
30.177035 37.279057 4.000000
31.831048 -0.460250 4.000000
31.896967 4.094237 4.000000
31.812478 4.626822 4.000000
33.125736 6.130380 4.000000
32.128369 5.506907 4.000000
31.269238 9.234468 4.000000
32.125916 11.020542 4.000000
31.756521 7.478105 4.000000
32.158171 10.087228 4.000000
32.006414 11.441384 4.000000
31.749849 12.346862 4.000000
31.749690 13.469545 4.000000
31.749689 14.592007 4.000000
31.749691 15.714469 4.000000
31.749828 16.837123 4.000000
31.912246 17.817672 4.000000
32.158153 19.096464 4.000000
32.043463 21.824789 4.000000
32.150567 18.035462 4.000000
30.418845 21.116826 4.000000
31.045989 23.884768 4.000000
34.362609 22.797212 4.000000
32.231330 23.046757 4.000000
33.222150 25.251870 4.000000
31.832000 29.642399 4.000000
31.580655 -2.057166 4.000000
31.060558 -4.047593 4.000000
31.690627 3.003497 4.000000
33.646325 3.579484 4.000000
32.402630 3.548515 4.000000
30.861579 6.301708 4.000000
33.291900 8.927093 4.000000
31.296701 9.683578 4.000000
34.025532 10.484666 4.000000
33.145308 11.222855 4.000000
32.227825 12.347534 4.000000
32.227818 13.469544 4.000000
32.227818 14.592007 4.000000
32.227818 15.714469 4.000000
32.227824 16.836531 4.000000
33.145407 17.961053 4.000000
33.997901 18.712022 4.000000
31.387357 19.283339 4.000000
33.315744 20.309118 4.000000
30.998058 21.192409 4.000000
33.664452 24.773352 4.000000
33.668986 25.373595 4.000000
31.408371 26.174779 4.000000
31.060560 33.231605 4.000000
31.580655 31.241179 4.000000
34.275440 2.868042 4.000000
31.604023 4.254876 4.000000
31.123597 0.960761 4.000000
34.931674 6.404579 4.000000
31.264681 7.977850 4.000000
30.884223 7.437726 4.000000
32.369116 7.558709 4.000000
32.297641 8.699868 4.000000
31.726187 9.374445 4.000000
33.131653 12.029239 4.000000
32.980898 12.472854 4.000000
33.076334 13.469585 4.000000
33.076282 14.592007 4.000000
33.076364 15.714412 4.000000
32.969718 16.963761 4.000000
33.332927 17.098392 4.000000
31.680478 19.762360 4.000000
32.301832 20.489443 4.000000
32.588265 22.199608 4.000000
31.374152 21.382181 4.000000
31.363463 22.393067 4.000000
36.142965 24.127889 4.000000
31.124766 28.215053 4.000000
31.682858 24.958736 4.000000
32.954486 25.713141 4.000000
30.738030 -1.927858 4.000000
32.372245 -2.937708 4.000000
36.191424 6.430611 4.000000
30.931491 6.974832 4.000000
33.702105 7.073662 4.000000
31.917024 6.487149 4.000000
32.581647 8.131453 4.000000
32.728091 9.311652 4.000000
33.164373 10.112598 4.000000
33.595103 12.401116 4.000000
34.111098 13.353468 4.000000
33.553463 13.469403 4.000000
33.553426 14.592007 4.000000
33.553555 15.714756 4.000000
33.921389 15.878747 4.000000
33.466073 16.528695 4.000000
33.165288 19.071625 4.000000
32.712930 19.883434 4.000000
32.564050 21.012029 4.000000
31.079305 21.786711 4.000000
34.049439 21.075602 4.000000
30.803536 21.752258 4.000000
36.690456 24.526041 4.000000
32.372421 32.121770 4.000000
30.738028 31.111872 4.000000
31.435670 1.984445 4.000000
36.491987 3.332481 4.000000
31.162796 1.263721 4.000000
33.826542 4.851867 4.000000
31.219993 7.321990 4.000000
32.522312 6.993690 4.000000
34.709989 7.493826 4.000000
33.755500 9.092695 4.000000
33.696401 9.401711 4.000000
33.483903 11.224577 4.000000
34.406438 12.321728 4.000000
34.402942 13.469281 4.000000
34.403148 14.592007 4.000000
34.403109 15.714568 4.000000
34.454910 17.046249 4.000000
33.483856 17.959405 4.000000
33.675957 19.735627 4.000000
33.751685 20.061218 4.000000
34.087251 22.352733 4.000000
32.525362 21.717027 4.000000
32.167206 22.233705 4.000000
33.454706 23.076606 4.000000
30.114606 26.793378 4.000000
36.462936 25.864054 4.000000
31.621887 27.014522 4.000000
38.132211 -5.114616 4.000000
35.139021 2.293585 4.000000
35.948390 1.958416 4.000000
33.245334 6.786638 4.000000
35.538445 5.442841 4.000000
33.649204 6.806649 4.000000
35.452094 9.085128 4.000000
35.851508 8.994958 4.000000
34.603025 10.107589 4.000000
34.607177 11.224622 4.000000
34.965583 12.361078 4.000000
34.879393 13.469585 4.000000
34.879476 14.592007 4.000000
34.879435 15.714441 4.000000
35.131594 16.706865 4.000000
34.607176 17.959386 4.000000
34.607590 19.076193 4.000000
35.871837 20.141795 4.000000
35.514704 20.271537 4.000000
33.656354 22.353393 4.000000
35.535211 22.677601 4.000000
33.103782 22.713138 4.000000
35.946792 27.224553 4.000000
34.765458 24.540750 4.000000
38.132211 34.298629 4.000000
32.335543 2.917260 4.000000
32.494770 1.733606 4.000000
37.101890 1.822447 4.000000
36.532007 5.202616 4.000000
34.545617 7.108674 4.000000
35.004810 7.268372 4.000000
34.818209 7.933806 4.000000
36.381902 10.809407 4.000000
35.225072 10.270735 4.000000
35.730134 11.224543 4.000000
35.730124 12.347083 4.000000
35.730125 13.469545 4.000000
35.730125 14.592007 4.000000
35.730125 15.714469 4.000000
35.730117 16.836929 4.000000
35.730159 17.959544 4.000000
35.321600 19.016110 4.000000
36.311455 18.250378 4.000000
34.823665 21.205779 4.000000
35.010443 21.882865 4.000000
34.561584 22.038410 4.000000
36.959541 24.184325 4.000000
37.248788 27.396127 4.000000
32.494970 27.449575 4.000000
33.031983 27.037519 4.000000
32.168197 0.924710 4.000000
34.358306 -2.223792 4.000000
35.686905 2.564006 4.000000
36.070789 4.503322 4.000000
36.121458 7.729923 4.000000
36.142890 6.790435 4.000000
36.932906 7.766494 4.000000
35.822388 9.914651 4.000000
36.064068 10.291959 4.000000
36.206217 11.224454 4.000000
36.206178 12.347082 4.000000
36.206181 13.469544 4.000000
36.206182 14.592007 4.000000
36.206181 15.714469 4.000000
36.206174 16.836931 4.000000
36.206283 17.959909 4.000000
36.043507 18.949825 4.000000
35.788518 19.246190 4.000000
36.704346 21.131713 4.000000
36.807404 22.264434 4.000000
36.142544 21.443310 4.000000
35.938272 24.850284 4.000000
35.691294 26.619051 4.000000
34.358306 31.407803 4.000000
32.154601 28.225701 4.000000
30.893250 0.352310 4.000000
35.266818 1.999884 4.000000
36.407874 4.337160 4.000000
35.038069 3.176906 4.000000
38.068947 5.396573 4.000000
36.542250 7.509311 4.000000
36.247195 8.777578 4.000000
36.066185 9.680829 4.000000
37.057057 10.102796 4.000000
37.057064 11.224618 4.000000
37.057066 12.347082 4.000000
37.057066 13.469545 4.000000
37.057066 14.592007 4.000000
37.057066 15.714469 4.000000
37.057066 16.836931 4.000000
37.057064 17.959395 4.000000
37.057058 19.081205 4.000000
36.015346 19.501780 4.000000
36.326181 20.387087 4.000000
37.076915 21.813306 4.000000
38.426524 24.149190 4.000000
34.704372 26.014278 4.000000
36.500488 24.089087 4.000000
35.253486 27.181760 4.000000
30.903278 28.875656 4.000000
32.969473 0.043737 4.000000
35.854736 0.428308 4.000000
37.310098 7.929668 4.000000
35.609450 3.684063 4.000000
37.291462 6.209523 4.000000
37.964484 6.143226 4.000000
37.445735 7.324471 4.000000
37.261081 8.979567 4.000000
37.533250 10.101849 4.000000
37.533496 11.224621 4.000000
37.533499 12.347083 4.000000
37.533499 13.469545 4.000000
37.533499 14.592007 4.000000
37.533499 15.714469 4.000000
37.533499 16.836931 4.000000
37.533496 17.959392 4.000000
37.533247 19.082171 4.000000
37.261078 20.204453 4.000000
37.457231 21.871561 4.000000
37.809545 23.334806 4.000000
36.388773 23.468538 4.000000
35.537767 25.547641 4.000000
37.162252 21.321433 4.000000
35.857754 28.766495 4.000000
32.969492 29.140300 4.000000
33.792064 1.135636 4.000000
34.622564 1.192655 4.000000
38.666997 2.767287 4.000000
38.842251 5.594495 4.000000
37.556927 6.108317 4.000000
37.504165 7.070637 4.000000
38.420493 8.221427 4.000000
38.383877 8.979816 4.000000
38.383880 10.102155 4.000000
38.383880 11.224620 4.000000
38.383880 12.347083 4.000000
38.383880 13.469545 4.000000
38.383880 14.592007 4.000000
38.383880 15.714469 4.000000
38.383880 16.836931 4.000000
38.383880 17.959393 4.000000
38.383880 19.081859 4.000000
38.383877 20.204190 4.000000
38.406589 20.953824 4.000000
37.504282 22.117132 4.000000
37.440324 22.856060 4.000000
38.666234 23.664560 4.000000
38.656343 26.397173 4.000000
34.632898 28.003220 4.000000
33.792078 28.048378 4.000000
34.652672 0.247422 4.000000
37.829796 1.907089 4.000000
36.338989 2.513308 4.000000
36.742976 4.401843 4.000000
37.639623 5.585893 4.000000
39.048659 6.165427 4.000000
38.587310 7.857800 4.000000
38.861117 8.979646 4.000000
38.861178 10.102160 4.000000
38.861179 11.224620 4.000000
38.861179 12.347083 4.000000
38.861179 13.469545 4.000000
38.861179 14.592007 4.000000
38.861179 15.714469 4.000000
38.861179 16.836931 4.000000
38.861179 17.959393 4.000000
38.861178 19.081853 4.000000
38.861116 20.204372 4.000000
38.587387 21.326290 4.000000
[...]
POINT_DATA 1250
SCALARS m double
LOOKUP_TABLE default
1.000000
1.000000
1.000000
1.000000
1.000000
1.000000
1.000000
1.000000
1.000000
1.000000
1.000000
1.000000
1.000000
1.000000
1.000000
1.000000
1.000000
1.000000
1.000000
1.000000
1.000000
1.000000
1.000000
1.000000
1.000000
1.000000
1.000000
1.000000
1.000000
1.000000
1.000000
1.000000
1.000000
1.000000
1.000000
1.000000
1.000000
1.000000
1.000000
1.000000
1.000000
1.000000
1.000000
1.000000
1.000000
1.000000
1.000000
1.000000
1.000000
1.000000
1.000000
1.000000
1.000000
1.000000
1.000000
1.000000
1.000000
1.000000
1.000000
1.000000
1.000000
1.000000
1.000000
1.000000
1.000000
1.000000
1.000000
1.000000
1.000000
1.000000
1.000000
1.000000
1.000000
1.000000
1.000000
1.000000
1.000000
1.000000
1.000000
1.000000
1.000000
1.000000
1.000000
1.000000
1.000000
1.000000
1.000000
1.000000
1.000000
1.000000
1.000000
1.000000
1.000000
1.000000
1.000000
1.000000
1.000000
1.000000
1.000000
1.000000
1.000000
1.000000
1.000000
1.000000
1.000000
1.000000
1.000000
1.000000
1.000000
1.000000
1.000000
1.000000
1.000000
1.000000
1.000000
1.000000
1.000000
1.000000
1.000000
1.000000
1.000000
1.000000
1.000000
1.000000
1.000000
1.000000
1.000000
1.000000
1.000000
1.000000
1.000000
1.000000
1.000000
1.000000
1.000000
1.000000
1.000000
1.000000
1.000000
1.000000
1.000000
1.000000
1.000000
1.000000
1.000000
1.000000
1.000000
1.000000
1.000000
1.000000
1.000000
1.000000
1.000000
1.000000
1.000000
1.000000
1.000000
1.000000
1.000000
1.000000
1.000000
1.000000
1.000000
1.000000
1.000000
1.000000
1.000000
1.000000
1.000000
1.000000
1.000000
1.000000
1.000000
1.000000
1.000000
1.000000
1.000000
1.000000
1.000000
1.000000
1.000000
1.000000
1.000000
1.000000
1.000000
1.000000
1.000000
1.000000
1.000000
1.000000
1.000000
1.000000
1.000000
1.000000
1.000000
1.000000
1.000000
1.000000
1.000000
1.000000
1.000000
1.000000
1.000000
1.000000
1.000000
1.000000
1.000000
1.000000
1.000000
1.000000
1.000000
1.000000
1.000000
1.000000
1.000000
1.000000
1.000000
1.000000
1.000000
1.000000
1.000000
1.000000
1.000000
1.000000
1.000000
1.000000
1.000000
1.000000
1.000000
1.000000
1.000000
1.000000
1.000000
1.000000
1.000000
1.000000
1.000000
1.000000
1.000000
1.000000
1.000000
1.000000
1.000000
1.000000
1.000000
1.000000
1.000000
1.000000
1.000000
1.000000
1.000000
1.000000
1.000000
1.000000
1.000000
1.000000
1.000000
1.000000
1.000000
1.000000
1.000000
1.000000
1.000000
1.000000
1.000000
1.000000
1.000000
1.000000
1.000000
1.000000
1.000000
1.000000
1.000000
1.000000
1.000000
1.000000
1.000000
1.000000
1.000000
1.000000
1.000000
1.000000
1.000000
1.000000
1.000000
1.000000
1.000000
1.000000
1.000000
1.000000
1.000000
1.000000
1.000000
1.000000
1.000000
1.000000
1.000000
1.000000
1.000000
1.000000
1.000000
1.000000
1.000000
1.000000
1.000000
1.000000
1.000000
1.000000
1.000000
1.000000
1.000000
1.000000
1.000000
1.000000
1.000000
1.000000
1.000000
1.000000
1.000000
1.000000
1.000000
1.000000
1.000000
1.000000
1.000000
1.000000
1.000000
1.000000
1.000000
1.000000
1.000000
1.000000
1.000000
1.000000
1.000000
1.000000
1.000000
1.000000
1.000000
1.000000
1.000000
1.000000
1.000000
1.000000
1.000000
1.000000
1.000000
1.000000
1.000000
1.000000
1.000000
1.000000
1.000000
1.000000
1.000000
1.000000
1.000000
1.000000
1.000000
1.000000
1.000000
1.000000
1.000000
1.000000
1.000000
1.000000
1.000000
1.000000
1.000000
1.000000
1.000000
1.000000
1.000000
1.000000
1.000000
1.000000
1.000000
1.000000
1.000000
1.000000
1.000000
1.000000
1.000000
1.000000
1.000000
1.000000
1.000000
1.000000
1.000000
1.000000
1.000000
1.000000
1.000000
1.000000
1.000000
1.000000
1.000000
1.000000
1.000000
1.000000
1.000000
1.000000
1.000000
1.000000
1.000000
1.000000
1.000000
1.000000
1.000000
1.000000
1.000000
1.000000
1.000000
1.000000
1.000000
1.000000
1.000000
1.000000
1.000000
1.000000
1.000000
1.000000
1.000000
1.000000
1.000000
1.000000
1.000000
1.000000
1.000000
1.000000
1.000000
1.000000
1.000000
1.000000
1.000000
1.000000
1.000000
1.000000
1.000000
1.000000
1.000000
1.000000
1.000000
1.000000
1.000000
1.000000
1.000000
1.000000
1.000000
1.000000
1.000000
1.000000
1.000000
1.000000
1.000000
1.000000
1.000000
1.000000
1.000000
1.000000
1.000000
1.000000
1.000000
1.000000
1.000000
1.000000
1.000000
1.000000
1.000000
1.000000
1.000000
1.000000
1.000000
1.000000
1.000000
1.000000
1.000000
1.000000
1.000000
1.000000
1.000000
1.000000
1.000000
1.000000
1.000000
1.000000
1.000000
1.000000
1.000000
1.000000
1.000000
1.000000
1.000000
1.000000
1.000000
1.000000
1.000000
1.000000
1.000000
1.000000
1.000000
1.000000
1.000000
1.000000
1.000000
1.000000
1.000000
1.000000
1.000000
1.000000
1.000000
1.000000
1.000000
1.000000
1.000000
1.000000
1.000000
1.000000
1.000000
1.000000
1.000000
1.000000
1.000000
1.000000
1.000000
1.000000
1.000000
1.000000
1.000000
1.000000
1.000000
1.000000
1.000000
1.000000
1.000000
1.000000
1.000000
1.000000
1.000000
1.000000
1.000000
1.000000
1.000000
1.000000
1.000000
1.000000
1.000000
1.000000
1.000000
1.000000
1.000000
1.000000
1.000000
1.000000
1.000000
1.000000
1.000000
1.000000
1.000000
1.000000
1.000000
1.000000
1.000000
1.000000
1.000000
1.000000
1.000000
1.000000
1.000000
1.000000
1.000000
1.000000
1.000000
1.000000
1.000000
1.000000
1.000000
1.000000
1.000000
1.000000
1.000000
1.000000
1.000000
1.000000
1.000000
1.000000
1.000000
1.000000
1.000000
1.000000
1.000000
1.000000
1.000000
1.000000
1.000000
1.000000
1.000000
1.000000
1.000000
1.000000
1.000000
1.000000
1.000000
1.000000
1.000000
1.000000
1.000000
1.000000
1.000000
1.000000
1.000000
1.000000
1.000000
1.000000
1.000000
1.000000
1.000000
1.000000
1.000000
1.000000
1.000000
1.000000
1.000000
1.000000
1.000000
1.000000
1.000000
1.000000
1.000000
1.000000
1.000000
1.000000
1.000000
1.000000
1.000000
1.000000
1.000000
1.000000
1.000000
1.000000
1.000000
1.000000
1.000000
1.000000
1.000000
1.000000
1.000000
1.000000
1.000000
1.000000
1.000000
1.000000
1.000000
1.000000
1.000000
1.000000
1.000000
1.000000
1.000000
1.000000
1.000000
1.000000
1.000000
1.000000
1.000000
1.000000
1.000000
1.000000
1.000000
1.000000
1.000000
1.000000
1.000000
1.000000
1.000000
1.000000
1.000000
1.000000
1.000000
1.000000
1.000000
1.000000
1.000000
1.000000
1.000000
1.000000
1.000000
1.000000
1.000000
1.000000
1.000000
1.000000
1.000000
1.000000
1.000000
1.000000
1.000000
1.000000
1.000000
1.000000
1.000000
1.000000
1.000000
1.000000
1.000000
1.000000
1.000000
1.000000
1.000000
1.000000
1.000000
1.000000
1.000000
1.000000
1.000000
1.000000
1.000000
1.000000
1.000000
1.000000
1.000000
1.000000
1.000000
1.000000
1.000000
1.000000
1.000000
1.000000
1.000000
1.000000
1.000000
1.000000
1.000000
1.000000
1.000000
1.000000
1.000000
1.000000
1.000000
1.000000
1.000000
1.000000
1.000000
1.000000
1.000000
1.000000
1.000000
1.000000
1.000000
1.000000
1.000000
1.000000
1.000000
1.000000
1.000000
1.000000
1.000000
1.000000
1.000000
1.000000
1.000000
1.000000
1.000000
1.000000
1.000000
1.000000
1.000000
1.000000
1.000000
1.000000
1.000000
1.000000
1.000000
1.000000
1.000000
1.000000
1.000000
1.000000
1.000000
1.000000
1.000000
1.000000
1.000000
1.000000
1.000000
1.000000
1.000000
1.000000
1.000000
1.000000
1.000000
1.000000
1.000000
1.000000
1.000000
1.000000
1.000000
1.000000
1.000000
1.000000
1.000000
1.000000
1.000000
1.000000
1.000000
1.000000
1.000000
1.000000
1.000000
1.000000
1.000000
1.000000
1.000000
1.000000
1.000000
1.000000
1.000000
1.000000
1.000000
1.000000
1.000000
1.000000
1.000000
1.000000
1.000000
1.000000
1.000000
1.000000
1.000000
1.000000
1.000000
1.000000
1.000000
1.000000
1.000000
1.000000
1.000000
1.000000
1.000000
1.000000
1.000000
1.000000
1.000000
1.000000
1.000000
1.000000
1.000000
1.000000
1.000000
1.000000
1.000000
1.000000
1.000000
1.000000
1.000000
1.000000
1.000000
1.000000
1.000000
1.000000
1.000000
1.000000
1.000000
1.000000
1.000000
1.000000
1.000000
1.000000
1.000000
1.000000
1.000000
1.000000
1.000000
1.000000
1.000000
1.000000
1.000000
1.000000
1.000000
1.000000
1.000000
1.000000
1.000000
1.000000
1.000000
1.000000
1.000000
1.000000
1.000000
1.000000
1.000000
1.000000
1.000000
1.000000
1.000000
1.000000
1.000000
1.000000
1.000000
1.000000
1.000000
1.000000
1.000000
1.000000
1.000000
1.000000
1.000000
1.000000
1.000000
1.000000
1.000000
1.000000
1.000000
1.000000
1.000000
1.000000
1.000000
1.000000
1.000000
1.000000
1.000000
1.000000
1.000000
1.000000
1.000000
1.000000
1.000000
1.000000
1.000000
1.000000
1.000000
1.000000
1.000000
1.000000
1.000000
1.000000
1.000000
1.000000
1.000000
1.000000
1.000000
1.000000
1.000000
1.000000
1.000000
1.000000
1.000000
1.000000
1.000000
1.000000
1.000000
1.000000
1.000000
1.000000
1.000000
1.000000
1.000000
1.000000
1.000000
1.000000
1.000000
1.000000
1.000000
1.000000
1.000000
1.000000
1.000000
1.000000
1.000000
1.000000
1.000000
1.000000
1.000000
1.000000
1.000000
1.000000
1.000000
1.000000
1.000000
1.000000
1.000000
1.000000
1.000000
1.000000
1.000000
1.000000
1.000000
1.000000
1.000000
1.000000
1.000000
1.000000
1.000000
1.000000
1.000000
1.000000
1.000000
1.000000
1.000000
1.000000
1.000000
1.000000
1.000000
1.000000
1.000000
1.000000
1.000000
1.000000
1.000000
1.000000
1.000000
1.000000
1.000000
1.000000
1.000000
1.000000
1.000000
1.000000
1.000000
1.000000
1.000000
1.000000
1.000000
1.000000
1.000000
1.000000
1.000000
1.000000
1.000000
1.000000
1.000000
1.000000
1.000000
1.000000
1.000000
1.000000
1.000000
1.000000
1.000000
1.000000
1.000000
1.000000
1.000000
1.000000
1.000000
1.000000
1.000000
1.000000
1.000000
1.000000
1.000000
1.000000
1.000000
1.000000
1.000000
1.000000
1.000000
1.000000
1.000000
1.000000
1.000000
1.000000
1.000000
1.000000
1.000000
1.000000
1.000000
1.000000
1.000000
1.000000
1.000000
1.000000
1.000000
1.000000
1.000000
1.000000
1.000000
1.000000
1.000000
1.000000
1.000000
1.000000
1.000000
1.000000
1.000000
1.000000
1.000000
1.000000
1.000000
1.000000
1.000000
1.000000
1.000000
1.000000
1.000000
1.000000
1.000000
1.000000
1.000000
1.000000
1.000000
1.000000
1.000000
1.000000
1.000000
1.000000
1.000000
1.000000
1.000000
1.000000
1.000000
1.000000
1.000000
1.000000
1.000000
1.000000
1.000000
1.000000
1.000000
1.000000
1.000000
1.000000
1.000000
1.000000
1.000000
1.000000
1.000000
1.000000
1.000000
1.000000
1.000000
1.000000
1.000000
1.000000
1.000000
1.000000
1.000000
1.000000
1.000000
1.000000
1.000000
1.000000
1.000000
1.000000
1.000000
1.000000
1.000000
1.000000
1.000000
1.000000
1.000000
1.000000
1.000000
1.000000
1.000000
1.000000
1.000000
1.000000
1.000000
1.000000
1.000000
1.000000
1.000000
1.000000
1.000000
1.000000
1.000000
1.000000
1.000000
1.000000
1.000000
1.000000
1.000000
1.000000
1.000000
1.000000
1.000000
1.000000
1.000000
1.000000
1.000000
1.000000
1.000000
1.000000
1.000000
1.000000
1.000000
1.000000
1.000000
1.000000
1.000000
1.000000
1.000000
1.000000
1.000000
1.000000
1.000000
1.000000
1.000000
1.000000
1.000000
1.000000
1.000000
1.000000
1.000000
1.000000
1.000000
1.000000
1.000000
1.000000
1.000000
1.000000
1.000000
1.000000
1.000000
1.000000
1.000000
1.000000
1.000000
1.000000
1.000000
1.000000
1.000000
1.000000
1.000000
1.000000
1.000000
1.000000
1.000000
1.000000
1.000000
1.000000
1.000000
1.000000
1.000000
1.000000
1.000000
1.000000
1.000000
1.000000
1.000000
1.000000
1.000000
1.000000
1.000000
1.000000
1.000000
1.000000
1.000000
1.000000
VECTORS v double
3.898300 -7.225835 0.000000
6.446100 -8.022611 0.000000
13.924116 3.003808 0.000000
2.880384 14.836941 0.000000
-3.886659 -4.687440 0.000000
1.169241 4.856564 0.000000
-6.811970 8.092301 0.000000
5.419422 5.250829 0.000000
10.018900 -0.191324 0.000000
-10.006747 0.085174 0.000000
-10.014862 0.000283 0.000000
-10.014889 0.000000 0.000000
-10.014889 -0.000000 0.000000
-10.014889 -0.000000 0.000000
-10.014876 -0.000286 0.000000
-10.010926 -0.077804 0.000000
5.769920 3.783212 0.000000
2.558531 -8.893323 0.000000
2.558401 3.589408 0.000000
-1.275398 -2.058102 0.000000
6.755953 5.461596 0.000000
-7.287834 7.954523 0.000000
1.683802 -2.449683 0.000000
6.044599 7.958285 0.000000
-4.956716 10.292470 0.000000
2.802476 -13.726701 0.000000
-9.465542 3.327899 0.000000
5.430309 -9.789780 0.000000
-7.841181 6.655796 0.000000
-7.585608 -6.371468 0.000000
-5.058818 1.461527 0.000000
9.785023 -2.185689 0.000000
10.020324 7.256435 0.000000
-0.138924 13.296138 0.000000
10.013395 -0.106990 0.000000
10.012961 -0.000380 0.000000
10.012943 -0.000001 0.000000
10.012943 0.000000 0.000000
10.012943 0.000000 0.000000
10.012944 0.000347 0.000000
10.012526 0.096857 0.000000
10.434556 3.778088 0.000000
0.747806 -8.950579 0.000000
10.968184 -13.440553 0.000000
-4.200357 10.414404 0.000000
-7.033114 6.956896 0.000000
0.062131 -2.492119 0.000000
5.441315 9.781155 0.000000
-9.434787 -3.411834 0.000000
2.802476 13.726701 0.000000
0.185645 -9.213779 0.000000
6.435783 -1.686351 0.000000
1.333231 -6.365543 0.000000
-3.898185 9.559807 0.000000
10.033796 -0.322473 0.000000
3.408136 2.486413 0.000000
7.159349 -2.733378 0.000000
-6.540285 -5.451737 0.000000
-10.006237 -0.318129 0.000000
11.082662 15.022259 0.000000
-10.013364 -0.016692 0.000000
-10.016026 0.000007 0.000000
-10.016054 -0.000001 0.000000
-10.016021 -0.000009 0.000000
-10.013808 0.014545 0.000000
1.666932 -10.576493 0.000000
-10.005821 0.309862 0.000000
4.255958 10.073421 0.000000
11.143881 -12.564096 0.000000
-5.457969 -6.055058 0.000000
-1.570457 2.539605 0.000000
8.144261 -12.662071 0.000000
8.792570 -5.986072 0.000000
4.583299 1.375330 0.000000
0.191200 9.192674 0.000000
-0.501555 -3.681134 0.000000
6.835109 -10.619239 0.000000
-1.440423 9.347179 0.000000
6.019063 -1.975426 0.000000
2.361251 -10.170188 0.000000
-0.325636 -11.479732 0.000000
-10.242357 0.704491 0.000000
-4.329666 2.679991 0.000000
3.607243 4.085557 0.000000
10.042442 -0.017076 0.000000
10.011337 0.020368 0.000000
10.010835 -0.000044 0.000000
10.010818 0.000002 0.000000
10.010833 0.000035 0.000000
10.011359 -0.017992 0.000000
10.044582 0.015327 0.000000
3.416928 -3.895865 0.000000
-3.877601 -10.738825 0.000000
-9.131613 1.688581 0.000000
1.412990 -0.008263 0.000000
15.354199 -5.284398 0.000000
4.219547 7.229835 0.000000
-5.919725 -9.273519 0.000000
6.835114 10.619239 0.000000
-0.501556 3.681134 0.000000
0.360985 -7.085931 0.000000
-0.154107 6.971796 0.000000
8.746068 -4.817089 0.000000
8.788541 9.314599 0.000000
-6.019090 7.892336 0.000000
-12.184830 6.737117 0.000000
9.158997 1.245155 0.000000
-8.041944 -2.181171 0.000000
-7.071213 -4.617741 0.000000
-4.947919 -1.059965 0.000000
-7.636952 5.986686 0.000000
-10.013628 0.003227 0.000000
-10.016193 0.000004 0.000000
-10.011450 -0.004478 0.000000
-6.931350 5.777942 0.000000
1.283395 -7.935340 0.000000
-7.136223 4.084472 0.000000
-7.945540 2.277757 0.000000
4.337370 4.613194 0.000000
-7.985814 -8.117034 0.000000
-5.873075 0.068749 0.000000
11.018322 -2.458618 0.000000
9.286666 5.546879 0.000000
8.244829 -4.174641 0.000000
-5.227118 7.575970 0.000000
-1.117684 -6.328709 0.000000
-1.995810 -10.926544 0.000000
5.713364 9.733226 0.000000
-8.507763 2.727586 0.000000
-6.434945 -2.770673 0.000000
-3.233966 -8.471238 0.000000
-7.765591 -3.050864 0.000000
-3.208124 6.195745 0.000000
10.175143 0.256908 0.000000
12.447803 5.977513 0.000000
4.680845 17.797600 0.000000
10.015149 -0.008475 0.000000
10.009321 0.000004 0.000000
10.038427 0.027531 0.000000
0.963303 -16.318328 0.000000
6.379570 -10.882270 0.000000
10.180964 -0.251172 0.000000
-3.414347 -6.065682 0.000000
-8.056479 2.392659 0.000000
-11.770887 -4.611095 0.000000
-1.442283 -4.720111 0.000000
-10.001940 -9.814297 0.000000
0.372490 -4.796725 0.000000
-1.995371 10.926669 0.000000
-1.117688 6.328720 0.000000
-5.237852 -5.397419 0.000000
1.862912 3.434080 0.000000
-3.669511 -9.016364 0.000000
4.365392 -2.367557 0.000000
-1.911873 14.561455 0.000000
-1.410644 13.580928 0.000000
2.400410 -1.995634 0.000000
9.655670 7.536316 0.000000
-5.256227 -15.878577 0.000000
-10.057576 -0.001014 0.000000
-9.964997 -1.047378 0.000000
-10.038106 -0.022851 0.000000
-10.015330 -0.000008 0.000000
-10.023481 0.007639 0.000000
-8.218047 7.186101 0.000000
-10.058915 -0.000380 0.000000
-5.556977 15.371577 0.000000
8.888272 -9.524727 0.000000
-4.622042 9.092445 0.000000
-10.422437 -7.085682 0.000000
-4.587046 -3.789996 0.000000
2.527695 -9.900004 0.000000
0.284267 3.274228 0.000000
1.713382 -3.289632 0.000000
-1.457432 4.598109 0.000000
4.837053 -9.997753 0.000000
2.495042 -15.375372 0.000000
1.730492 -3.453464 0.000000
-3.181487 3.892384 0.000000
-8.709289 1.519918 0.000000
-10.581915 -1.768725 0.000000
5.068467 11.026321 0.000000
12.729463 1.082034 0.000000
-10.035121 0.101208 0.000000
-10.004410 -0.000207 0.000000
11.549790 0.849885 0.000000
10.003653 0.003055 0.000000
10.008827 -0.000006 0.000000
10.006797 -0.002140 0.000000
13.353700 -5.832338 0.000000
-10.004455 -0.000146 0.000000
-9.973044 -0.097954 0.000000
14.583068 -4.170523 0.000000
3.717624 -6.530971 0.000000
-9.923547 -0.694308 0.000000
-6.941508 -11.162138 0.000000
-4.799865 0.040293 0.000000
1.723981 3.448805 0.000000
4.891520 -5.912919 0.000000
4.837053 9.997753 0.000000
-3.059694 -4.478569 0.000000
-9.858248 -1.597346 0.000000
-5.067573 -11.706631 0.000000
-7.386288 -4.840706 0.000000
-7.715338 7.024192 0.000000
-8.366730 5.061334 0.000000
-9.972494 0.795530 0.000000
13.205991 14.029478 0.000000
-4.550932 3.121144 0.000000
-10.011751 -0.004398 0.000000
-10.013855 0.000045 0.000000
-10.013599 -0.000001 0.000000
-10.013591 -0.000001 0.000000
-10.013610 0.000030 0.000000
-10.015521 -0.000389 0.000000
-10.007682 0.010312 0.000000
-2.876197 -1.221885 0.000000
11.739900 -16.179774 0.000000
-9.894869 -1.252841 0.000000
-8.196314 -5.341879 0.000000
-7.643474 -7.200624 0.000000
1.380939 6.459825 0.000000
0.170451 12.096098 0.000000
-9.850859 1.580663 0.000000
0.432096 8.128303 0.000000
1.500562 -1.199797 0.000000
-3.933258 -8.257643 0.000000
2.648948 -3.388265 0.000000
-1.659239 -0.164851 0.000000
1.564692 -10.042822 0.000000
-4.784888 6.154250 0.000000
3.352846 2.708555 0.000000
-9.096023 -0.645501 0.000000
-2.289588 11.145584 0.000000
10.017105 -0.024090 0.000000
10.009205 -0.000038 0.000000
10.009268 -0.000006 0.000000
10.009280 0.000001 0.000000
10.009261 0.000010 0.000000
10.008946 0.000037 0.000000
10.012584 0.030316 0.000000
-1.611316 -10.008571 0.000000
-10.254065 -0.130728 0.000000
-3.779285 -11.458174 0.000000
6.526571 -9.609714 0.000000
1.772589 9.933195 0.000000
-0.135647 1.017616 0.000000
2.714150 3.400151 0.000000
-3.933256 8.257638 0.000000
1.371847 0.815640 0.000000
-11.641297 -4.346893 0.000000
2.763587 5.413021 0.000000
1.090817 -8.138277 0.000000
-2.314444 -1.739890 0.000000
9.011253 1.301307 0.000000
-9.026684 0.930073 0.000000
-8.056956 0.207543 0.000000
-11.663317 15.774425 0.000000
-10.011771 0.029118 0.000000
-10.011911 -0.000306 0.000000
-10.011558 -0.000008 0.000000
-10.011556 -0.000000 0.000000
-10.011555 -0.000000 0.000000
-10.011556 0.000000 0.000000
-10.011559 0.000009 0.000000
-10.011921 0.000244 0.000000
-10.011635 -0.029642 0.000000
-12.758311 -15.525782 0.000000
-6.675727 -0.585864 0.000000
5.108265 4.738878 0.000000
11.338927 1.003047 0.000000
-7.688428 6.509557 0.000000
-5.819805 1.019525 0.000000
2.535719 -5.449949 0.000000
-11.539954 4.790041 0.000000
-7.980570 -7.190551 0.000000
-9.767063 -5.480469 0.000000
9.136135 5.181349 0.000000
-10.804861 0.025864 0.000000
2.744440 3.407881 0.000000
4.524221 4.309097 0.000000
-7.267724 -6.691568 0.000000
-10.001094 -0.001878 0.000000
10.006199 -0.023253 0.000000
10.010034 0.000020 0.000000
10.010160 0.000000 0.000000
10.010163 0.000000 0.000000
10.010163 -0.000000 0.000000
10.010162 -0.000000 0.000000
10.010159 -0.000000 0.000000
10.010031 -0.000027 0.000000
10.006286 0.023731 0.000000
-10.001322 0.002024 0.000000
-7.348684 5.481311 0.000000
4.329301 0.452419 0.000000
-0.996965 7.482326 0.000000
-11.249515 0.294742 0.000000
3.649894 -2.713743 0.000000
-9.743081 5.558548 0.000000
-7.980430 7.190718 0.000000
-9.998122 0.096419 0.000000
-6.149931 -8.686192 0.000000
3.593287 1.289538 0.000000
-6.344651 2.982519 0.000000