# vtk DataFile Version 4.0
hesp visualization file
ASCII
DATASET UNSTRUCTURED_GRID
POINTS 1250 double
33.629737 2.970629 4.000000
30.830047 3.174696 4.000000
32.461276 3.928914 4.000000
32.060613 4.489052 4.000000
31.112879 6.293259 4.000000
30.429965 7.230182 4.000000
30.233168 7.857771 4.000000
30.233365 8.979697 4.000000
30.233366 10.102158 4.000000
30.233366 11.224620 4.000000
30.233366 12.347083 4.000000
30.233366 13.469545 4.000000
30.233366 14.592007 4.000000
30.233366 15.714469 4.000000
30.233366 16.836931 4.000000
30.233366 17.959393 4.000000
30.233366 19.081855 4.000000
30.233365 20.204317 4.000000
30.233168 21.326242 4.000000
30.429565 21.954189 4.000000
31.112355 22.890861 4.000000
32.042328 24.702966 4.000000
32.458441 25.229837 4.000000
30.780452 25.993697 4.000000
33.629657 26.213357 4.000000
30.685684 -4.937902 4.000000
33.454194 1.563095 4.000000
30.346302 1.386504 4.000000
30.796536 4.328247 4.000000
31.549496 6.506600 4.000000
31.573308 7.436866 4.000000
31.356044 7.855904 4.000000
31.092752 8.979731 4.000000
31.092691 10.102158 4.000000
31.092691 11.224620 4.000000
31.092691 12.347083 4.000000
31.092691 13.469545 4.000000
31.092691 14.592007 4.000000
31.092691 15.714469 4.000000
31.092691 16.836931 4.000000
31.092691 17.959393 4.000000
31.092691 19.081855 4.000000
31.092752 20.204283 4.000000
31.356043 21.328109 4.000000
31.573604 21.747224 4.000000
31.570559 22.677127 4.000000
30.798112 24.866219 4.000000
30.344408 27.796064 4.000000
33.454192 27.620919 4.000000
30.685684 34.121916 4.000000
31.099109 0.966346 4.000000
31.324888 3.131455 4.000000
31.537153 5.029226 4.000000
32.900465 5.475590 4.000000
30.378896 5.572013 4.000000
30.763989 7.357726 4.000000
31.906411 8.801888 4.000000
31.559756 8.979467 4.000000
31.559630 10.102158 4.000000
31.559630 11.224620 4.000000
31.559630 12.347083 4.000000
31.559630 13.469545 4.000000
31.559630 14.592007 4.000000
31.559630 15.714469 4.000000
31.559630 16.836931 4.000000
31.559630 17.959393 4.000000
31.559630 19.081855 4.000000
31.559757 20.204547 4.000000
31.906151 20.382082 4.000000
30.765259 21.825285 4.000000
30.378888 23.611928 4.000000
32.904977 23.699615 4.000000
31.554525 24.232643 4.000000
31.310676 26.031384 4.000000
31.099109 28.217668 4.000000
31.695226 -1.210179 4.000000
30.729137 -1.605148 4.000000
32.602552 3.449758 4.000000
32.154475 4.150829 4.000000
31.768069 5.892459 4.000000
31.499251 6.744047 4.000000
32.418653 7.862513 4.000000
32.418725 8.979647 4.000000
32.418748 10.102158 4.000000
32.418749 11.224620 4.000000
32.418749 12.347083 4.000000
32.418749 13.469545 4.000000
32.418749 14.592007 4.000000
32.418749 15.714469 4.000000
32.418749 16.836931 4.000000
32.418749 17.959393 4.000000
32.418748 19.081855 4.000000
32.418725 20.204366 4.000000
32.418653 21.321503 4.000000
31.498901 22.442004 4.000000
31.743520 23.300284 4.000000
32.223127 24.998962 4.000000
32.590146 25.684247 4.000000
30.729135 30.789161 4.000000
31.695227 30.394192 4.000000
34.457313 3.922357 4.000000
30.404694 3.236925 4.000000
31.099220 2.087331 4.000000
33.761566 4.918807 4.000000
32.723347 6.119963 4.000000
32.622823 6.733812 4.000000
32.881701 7.854699 4.000000
32.886237 8.979708 4.000000
32.886259 10.102158 4.000000
32.886259 11.224620 4.000000
32.886259 12.347083 4.000000
32.886259 13.469545 4.000000
32.886259 14.592007 4.000000
32.886259 15.714469 4.000000
32.886259 16.836931 4.000000
32.886259 17.959393 4.000000
32.886259 19.081855 4.000000
32.886237 20.204306 4.000000
32.881702 21.329313 4.000000
32.622814 22.450192 4.000000
32.630874 23.082834 4.000000
33.819208 24.200316 4.000000
31.099596 27.095430 4.000000
30.405004 25.945918 4.000000
34.456990 25.262003 4.000000
30.996231 -0.472603 4.000000
32.830908 -0.424486 4.000000
35.280462 4.461342 4.000000
32.723598 5.229287 4.000000
33.816312 6.441513 4.000000
33.744798 6.734545 4.000000
33.744954 7.857229 4.000000
33.744954 8.979696 4.000000
33.744954 10.102158 4.000000
33.744954 11.224620 4.000000
33.744954 12.347083 4.000000
33.744954 13.469545 4.000000
33.744954 14.592007 4.000000
33.744954 15.714469 4.000000
33.744954 16.836931 4.000000
33.744954 17.959393 4.000000
33.744954 19.081855 4.000000
33.744954 20.204317 4.000000
33.744954 21.326784 4.000000
33.744879 22.449265 4.000000
33.833762 22.784833 4.000000
32.684543 24.045574 4.000000
35.283376 24.727318 4.000000
32.830985 29.608519 4.000000
30.996229 29.656617 4.000000
31.932010 1.828501 4.000000
36.115939 2.529338 4.000000
32.180907 3.057277 4.000000
33.020303 4.480337 4.000000
33.907000 5.645294 4.000000
34.213076 6.734346 4.000000
34.213280 7.857236 4.000000
34.213281 8.979696 4.000000
34.213282 10.102158 4.000000
34.213282 11.224620 4.000000
34.213282 12.347083 4.000000
34.213282 13.469545 4.000000
34.213282 14.592007 4.000000
34.213282 15.714469 4.000000
34.213282 16.836931 4.000000
34.213282 17.959393 4.000000
34.213282 19.081855 4.000000
34.213281 20.204317 4.000000
34.213280 21.326777 4.000000
34.213129 22.449710 4.000000
33.910275 23.547227 4.000000
33.019072 24.697693 4.000000
32.180832 26.127377 4.000000
36.115671 26.654773 4.000000
31.932268 27.357495 4.000000
37.019689 -2.815133 4.000000
34.590072 4.309836 4.000000
35.550999 2.746631 4.000000
34.209994 5.522555 4.000000
35.335761 5.613069 4.000000
35.071479 6.734798 4.000000
35.071351 7.857234 4.000000
35.071351 8.979696 4.000000
35.071351 10.102158 4.000000
35.071351 11.224620 4.000000
35.071351 12.347083 4.000000
35.071351 13.469545 4.000000
35.071351 14.592007 4.000000
35.071351 15.714469 4.000000
35.071351 16.836931 4.000000
35.071351 17.959393 4.000000
35.071351 19.081855 4.000000
35.071351 20.204317 4.000000
35.071351 21.326779 4.000000
35.071480 22.449215 4.000000
35.335688 23.571191 4.000000
34.228528 23.631819 4.000000
35.550262 26.437028 4.000000
34.661127 24.849331 4.000000
37.019689 31.999146 4.000000
33.160492 3.479821 4.000000
34.762581 2.098930 4.000000
36.024602 3.600440 4.000000
36.068255 5.057252 4.000000
36.221591 5.659892 4.000000
35.540652 6.734578 4.000000
35.540582 7.857234 4.000000
35.540581 8.979696 4.000000
35.540581 10.102158 4.000000
35.540581 11.224620 4.000000
35.540581 12.347083 4.000000
35.540581 13.469545 4.000000
35.540581 14.592007 4.000000
35.540581 15.714469 4.000000
35.540581 16.836931 4.000000
35.540581 17.959393 4.000000
35.540581 19.081855 4.000000
35.540581 20.204317 4.000000
35.540582 21.326780 4.000000
35.540654 22.449437 4.000000
36.222846 23.525155 4.000000
36.069694 24.125757 4.000000
36.002597 25.600273 4.000000
34.762608 27.084970 4.000000
33.160564 25.704212 4.000000
32.723761 1.126606 4.000000
35.262953 -0.324532 4.000000
35.070631 3.341113 4.000000
35.721400 4.571957 4.000000
36.027052 6.775367 4.000000
36.397538 6.733858 4.000000
36.397900 7.857233 4.000000
36.397900 8.979696 4.000000
36.397900 10.102158 4.000000
36.397900 11.224620 4.000000
36.397900 12.347083 4.000000
36.397900 13.469545 4.000000
36.397900 14.592007 4.000000
36.397900 15.714469 4.000000
36.397900 16.836931 4.000000
36.397900 17.959393 4.000000
36.397900 19.081855 4.000000
36.397900 20.204317 4.000000
36.397900 21.326780 4.000000
36.397544 22.450148 4.000000
36.025115 22.408420 4.000000
35.717905 24.601563 4.000000
35.071032 25.842408 4.000000
35.262954 29.508544 4.000000
32.723761 28.057407 4.000000
33.553706 0.914878 4.000000
36.944265 2.030503 4.000000
37.241367 4.174709 4.000000
36.489228 4.374007 4.000000
36.602081 5.611877 4.000000
36.867530 6.735075 4.000000
36.867951 7.857234 4.000000
36.867951 8.979696 4.000000
36.867951 10.102158 4.000000
36.867951 11.224620 4.000000
36.867951 12.347083 4.000000
36.867951 13.469545 4.000000
36.867951 14.592007 4.000000
36.867951 15.714469 4.000000
36.867951 16.836931 4.000000
36.867951 17.959393 4.000000
36.867951 19.081855 4.000000
36.867951 20.204317 4.000000
36.867951 21.326779 4.000000
36.867533 22.448940 4.000000
36.602102 23.572151 4.000000
36.497976 24.822226 4.000000
37.242074 25.008933 4.000000
36.944231 27.153564 4.000000
33.553706 28.269136 4.000000
34.966366 1.123782 4.000000
36.484382 1.775278 4.000000
37.239394 5.618203 4.000000
37.775899 4.301474 4.000000
37.724434 5.611829 4.000000
37.724531 6.734773 4.000000
37.724532 7.857234 4.000000
37.724532 8.979696 4.000000
37.724532 10.102158 4.000000
37.724532 11.224620 4.000000
37.724532 12.347083 4.000000
37.724532 13.469545 4.000000
37.724532 14.592007 4.000000
37.724532 15.714469 4.000000
37.724532 16.836931 4.000000
37.724532 17.959393 4.000000
37.724532 19.081855 4.000000
37.724532 20.204317 4.000000
37.724532 21.326779 4.000000
37.724531 22.449241 4.000000
37.724436 23.572192 4.000000
37.771129 24.876350 4.000000
37.235097 23.560249 4.000000
36.484533 27.408837 4.000000
34.966366 28.060231 4.000000
36.091990 1.125759 4.000000
36.100391 2.216722 4.000000
37.936762 2.806211 4.000000
38.151814 4.583827 4.000000
38.194886 5.612484 4.000000
38.195157 6.734772 4.000000
38.195158 7.857234 4.000000
38.195158 8.979696 4.000000
38.195158 10.102158 4.000000
38.195158 11.224620 4.000000
38.195158 12.347083 4.000000
38.195158 13.469545 4.000000
38.195158 14.592007 4.000000
38.195158 15.714469 4.000000
38.195158 16.836931 4.000000
38.195158 17.959393 4.000000
38.195158 19.081855 4.000000
38.195158 20.204317 4.000000
38.195158 21.326779 4.000000
38.195157 22.449242 4.000000
38.194885 23.571524 4.000000
38.151775 24.605490 4.000000
37.935906 26.377978 4.000000
36.100405 26.967326 4.000000
36.091990 28.058254 4.000000
37.214464 1.125678 4.000000
37.765740 2.131494 4.000000
38.133519 3.422642 4.000000
39.051294 4.480878 4.000000
39.051177 5.612320 4.000000
39.051177 6.734772 4.000000
39.051177 7.857234 4.000000
39.051177 8.979696 4.000000
39.051177 10.102158 4.000000
39.051177 11.224620 4.000000
39.051177 12.347083 4.000000
39.051177 13.469545 4.000000
39.051177 14.592007 4.000000
39.051177 15.714469 4.000000
39.051177 16.836931 4.000000
39.051177 17.959393 4.000000
39.051177 19.081855 4.000000
39.051177 20.204317 4.000000
39.051177 21.326779 4.000000
[...]
POINT_DATA 1250
SCALARS m double
LOOKUP_TABLE default
1.000000
1.000000
1.000000
1.000000
1.000000
1.000000
1.000000
1.000000
1.000000
1.000000
1.000000
1.000000
1.000000
1.000000
1.000000
1.000000
1.000000
1.000000
1.000000
1.000000
1.000000
1.000000
1.000000
1.000000
1.000000
1.000000
1.000000
1.000000
1.000000
1.000000
1.000000
1.000000
1.000000
1.000000
1.000000
1.000000
1.000000
1.000000
1.000000
1.000000
1.000000
1.000000
1.000000
1.000000
1.000000
1.000000
1.000000
1.000000
1.000000
1.000000
1.000000
1.000000
1.000000
1.000000
1.000000
1.000000
1.000000
1.000000
1.000000
1.000000
1.000000
1.000000
1.000000
1.000000
1.000000
1.000000
1.000000
1.000000
1.000000
1.000000
1.000000
1.000000
1.000000
1.000000
1.000000
1.000000
1.000000
1.000000
1.000000
1.000000
1.000000
1.000000
1.000000
1.000000
1.000000
1.000000
1.000000
1.000000
1.000000
1.000000
1.000000
1.000000
1.000000
1.000000
1.000000
1.000000
1.000000
1.000000
1.000000
1.000000
1.000000
1.000000
1.000000
1.000000
1.000000
1.000000
1.000000
1.000000
1.000000
1.000000
1.000000
1.000000
1.000000
1.000000
1.000000
1.000000
1.000000
1.000000
1.000000
1.000000
1.000000
1.000000
1.000000
1.000000
1.000000
1.000000
1.000000
1.000000
1.000000
1.000000
1.000000
1.000000
1.000000
1.000000
1.000000
1.000000
1.000000
1.000000
1.000000
1.000000
1.000000
1.000000
1.000000
1.000000
1.000000
1.000000
1.000000
1.000000
1.000000
1.000000
1.000000
1.000000
1.000000
1.000000
1.000000
1.000000
1.000000
1.000000
1.000000
1.000000
1.000000
1.000000
1.000000
1.000000
1.000000
1.000000
1.000000
1.000000
1.000000
1.000000
1.000000
1.000000
1.000000
1.000000
1.000000
1.000000
1.000000
1.000000
1.000000
1.000000
1.000000
1.000000
1.000000
1.000000
1.000000
1.000000
1.000000
1.000000
1.000000
1.000000
1.000000
1.000000
1.000000
1.000000
1.000000
1.000000
1.000000
1.000000
1.000000
1.000000
1.000000
1.000000
1.000000
1.000000
1.000000
1.000000
1.000000
1.000000
1.000000
1.000000
1.000000
1.000000
1.000000
1.000000
1.000000
1.000000
1.000000
1.000000
1.000000
1.000000
1.000000
1.000000
1.000000
1.000000
1.000000
1.000000
1.000000
1.000000
1.000000
1.000000
1.000000
1.000000
1.000000
1.000000
1.000000
1.000000
1.000000
1.000000
1.000000
1.000000
1.000000
1.000000
1.000000
1.000000
1.000000
1.000000
1.000000
1.000000
1.000000
1.000000
1.000000
1.000000
1.000000
1.000000
1.000000
1.000000
1.000000
1.000000
1.000000
1.000000
1.000000
1.000000
1.000000
1.000000
1.000000
1.000000
1.000000
1.000000
1.000000
1.000000
1.000000
1.000000
1.000000
1.000000
1.000000
1.000000
1.000000
1.000000
1.000000
1.000000
1.000000
1.000000
1.000000
1.000000
1.000000
1.000000
1.000000
1.000000
1.000000
1.000000
1.000000
1.000000
1.000000
1.000000
1.000000
1.000000
1.000000
1.000000
1.000000
1.000000
1.000000
1.000000
1.000000
1.000000
1.000000
1.000000
1.000000
1.000000
1.000000
1.000000
1.000000
1.000000
1.000000
1.000000
1.000000
1.000000
1.000000
1.000000
1.000000
1.000000
1.000000
1.000000
1.000000
1.000000
1.000000
1.000000
1.000000
1.000000
1.000000
1.000000
1.000000
1.000000
1.000000
1.000000
1.000000
1.000000
1.000000
1.000000
1.000000
1.000000
1.000000
1.000000
1.000000
1.000000
1.000000
1.000000
1.000000
1.000000
1.000000
1.000000
1.000000
1.000000
1.000000
1.000000
1.000000
1.000000
1.000000
1.000000
1.000000
1.000000
1.000000
1.000000
1.000000
1.000000
1.000000
1.000000
1.000000
1.000000
1.000000
1.000000
1.000000
1.000000
1.000000
1.000000
1.000000
1.000000
1.000000
1.000000
1.000000
1.000000
1.000000
1.000000
1.000000
1.000000
1.000000
1.000000
1.000000
1.000000
1.000000
1.000000
1.000000
1.000000
1.000000
1.000000
1.000000
1.000000
1.000000
1.000000
1.000000
1.000000
1.000000
1.000000
1.000000
1.000000
1.000000
1.000000
1.000000
1.000000
1.000000
1.000000
1.000000
1.000000
1.000000
1.000000
1.000000
1.000000
1.000000
1.000000
1.000000
1.000000
1.000000
1.000000
1.000000
1.000000
1.000000
1.000000
1.000000
1.000000
1.000000
1.000000
1.000000
1.000000
1.000000
1.000000
1.000000
1.000000
1.000000
1.000000
1.000000
1.000000
1.000000
1.000000
1.000000
1.000000
1.000000
1.000000
1.000000
1.000000
1.000000
1.000000
1.000000
1.000000
1.000000
1.000000
1.000000
1.000000
1.000000
1.000000
1.000000
1.000000
1.000000
1.000000
1.000000
1.000000
1.000000
1.000000
1.000000
1.000000
1.000000
1.000000
1.000000
1.000000
1.000000
1.000000
1.000000
1.000000
1.000000
1.000000
1.000000
1.000000
1.000000
1.000000
1.000000
1.000000
1.000000
1.000000
1.000000
1.000000
1.000000
1.000000
1.000000
1.000000
1.000000
1.000000
1.000000
1.000000
1.000000
1.000000
1.000000
1.000000
1.000000
1.000000
1.000000
1.000000
1.000000
1.000000
1.000000
1.000000
1.000000
1.000000
1.000000
1.000000
1.000000
1.000000
1.000000
1.000000
1.000000
1.000000
1.000000
1.000000
1.000000
1.000000
1.000000
1.000000
1.000000
1.000000
1.000000
1.000000
1.000000
1.000000
1.000000
1.000000
1.000000
1.000000
1.000000
1.000000
1.000000
1.000000
1.000000
1.000000
1.000000
1.000000
1.000000
1.000000
1.000000
1.000000
1.000000
1.000000
1.000000
1.000000
1.000000
1.000000
1.000000
1.000000
1.000000
1.000000
1.000000
1.000000
1.000000
1.000000
1.000000
1.000000
1.000000
1.000000
1.000000
1.000000
1.000000
1.000000
1.000000
1.000000
1.000000
1.000000
1.000000
1.000000
1.000000
1.000000
1.000000
1.000000
1.000000
1.000000
1.000000
1.000000
1.000000
1.000000
1.000000
1.000000
1.000000
1.000000
1.000000
1.000000
1.000000
1.000000
1.000000
1.000000
1.000000
1.000000
1.000000
1.000000
1.000000
1.000000
1.000000
1.000000
1.000000
1.000000
1.000000
1.000000
1.000000
1.000000
1.000000
1.000000
1.000000
1.000000
1.000000
1.000000
1.000000
1.000000
1.000000
1.000000
1.000000
1.000000
1.000000
1.000000
1.000000
1.000000
1.000000
1.000000
1.000000
1.000000
1.000000
1.000000
1.000000
1.000000
1.000000
1.000000
1.000000
1.000000
1.000000
1.000000
1.000000
1.000000
1.000000
1.000000
1.000000
1.000000
1.000000
1.000000
1.000000
1.000000
1.000000
1.000000
1.000000
1.000000
1.000000
1.000000
1.000000
1.000000
1.000000
1.000000
1.000000
1.000000
1.000000
1.000000
1.000000
1.000000
1.000000
1.000000
1.000000
1.000000
1.000000
1.000000
1.000000
1.000000
1.000000
1.000000
1.000000
1.000000
1.000000
1.000000
1.000000
1.000000
1.000000
1.000000
1.000000
1.000000
1.000000
1.000000
1.000000
1.000000
1.000000
1.000000
1.000000
1.000000
1.000000
1.000000
1.000000
1.000000
1.000000
1.000000
1.000000
1.000000
1.000000
1.000000
1.000000
1.000000
1.000000
1.000000
1.000000
1.000000
1.000000
1.000000
1.000000
1.000000
1.000000
1.000000
1.000000
1.000000
1.000000
1.000000
1.000000
1.000000
1.000000
1.000000
1.000000
1.000000
1.000000
1.000000
1.000000
1.000000
1.000000
1.000000
1.000000
1.000000
1.000000
1.000000
1.000000
1.000000
1.000000
1.000000
1.000000
1.000000
1.000000
1.000000
1.000000
1.000000
1.000000
1.000000
1.000000
1.000000
1.000000
1.000000
1.000000
1.000000
1.000000
1.000000
1.000000
1.000000
1.000000
1.000000
1.000000
1.000000
1.000000
1.000000
1.000000
1.000000
1.000000
1.000000
1.000000
1.000000
1.000000
1.000000
1.000000
1.000000
1.000000
1.000000
1.000000
1.000000
1.000000
1.000000
1.000000
1.000000
1.000000
1.000000
1.000000
1.000000
1.000000
1.000000
1.000000
1.000000
1.000000
1.000000
1.000000
1.000000
1.000000
1.000000
1.000000
1.000000
1.000000
1.000000
1.000000
1.000000
1.000000
1.000000
1.000000
1.000000
1.000000
1.000000
1.000000
1.000000
1.000000
1.000000
1.000000
1.000000
1.000000
1.000000
1.000000
1.000000
1.000000
1.000000
1.000000
1.000000
1.000000
1.000000
1.000000
1.000000
1.000000
1.000000
1.000000
1.000000
1.000000
1.000000
1.000000
1.000000
1.000000
1.000000
1.000000
1.000000
1.000000
1.000000
1.000000
1.000000
1.000000
1.000000
1.000000
1.000000
1.000000
1.000000
1.000000
1.000000
1.000000
1.000000
1.000000
1.000000
1.000000
1.000000
1.000000
1.000000
1.000000
1.000000
1.000000
1.000000
1.000000
1.000000
1.000000
1.000000
1.000000
1.000000
1.000000
1.000000
1.000000
1.000000
1.000000
1.000000
1.000000
1.000000
1.000000
1.000000
1.000000
1.000000
1.000000
1.000000
1.000000
1.000000
1.000000
1.000000
1.000000
1.000000
1.000000
1.000000
1.000000
1.000000
1.000000
1.000000
1.000000
1.000000
1.000000
1.000000
1.000000
1.000000
1.000000
1.000000
1.000000
1.000000
1.000000
1.000000
1.000000
1.000000
1.000000
1.000000
1.000000
1.000000
1.000000
1.000000
1.000000
1.000000
1.000000
1.000000
1.000000
1.000000
1.000000
1.000000
1.000000
1.000000
1.000000
1.000000
1.000000
1.000000
1.000000
1.000000
1.000000
1.000000
1.000000
1.000000
1.000000
1.000000
1.000000
1.000000
1.000000
1.000000
1.000000
1.000000
1.000000
1.000000
1.000000
1.000000
1.000000
1.000000
1.000000
1.000000
1.000000
1.000000
1.000000
1.000000
1.000000
1.000000
1.000000
1.000000
1.000000
1.000000
1.000000
1.000000
1.000000
1.000000
1.000000
1.000000
1.000000
1.000000
1.000000
1.000000
1.000000
1.000000
1.000000
1.000000
1.000000
1.000000
1.000000
1.000000
1.000000
1.000000
1.000000
1.000000
1.000000
1.000000
1.000000
1.000000
1.000000
1.000000
1.000000
1.000000
1.000000
1.000000
1.000000
1.000000
1.000000
1.000000
1.000000
1.000000
1.000000
1.000000
1.000000
1.000000
1.000000
1.000000
1.000000
1.000000
1.000000
1.000000
1.000000
1.000000
1.000000
1.000000
1.000000
1.000000
1.000000
1.000000
1.000000
1.000000
1.000000
1.000000
1.000000
1.000000
1.000000
1.000000
1.000000
1.000000
1.000000
1.000000
1.000000
1.000000
1.000000
1.000000
1.000000
1.000000
1.000000
1.000000
1.000000
1.000000
1.000000
1.000000
1.000000
1.000000
1.000000
1.000000
1.000000
1.000000
1.000000
1.000000
1.000000
1.000000
1.000000
1.000000
1.000000
1.000000
1.000000
1.000000
1.000000
1.000000
1.000000
1.000000
1.000000
1.000000
1.000000
1.000000
1.000000
1.000000
1.000000
1.000000
1.000000
1.000000
1.000000
1.000000
1.000000
1.000000
1.000000
1.000000
1.000000
1.000000
1.000000
1.000000
1.000000
1.000000
1.000000
1.000000
1.000000
1.000000
1.000000
1.000000
1.000000
1.000000
1.000000
1.000000
1.000000
1.000000
1.000000
1.000000
1.000000
1.000000
1.000000
1.000000
1.000000
1.000000
1.000000
1.000000
1.000000
1.000000
1.000000
1.000000
1.000000
1.000000
1.000000
1.000000
1.000000
1.000000
1.000000
1.000000
1.000000
1.000000
1.000000
1.000000
1.000000
1.000000
1.000000
1.000000
1.000000
1.000000
1.000000
1.000000
1.000000
1.000000
1.000000
1.000000
1.000000
1.000000
1.000000
1.000000
1.000000
1.000000
1.000000
1.000000
1.000000
1.000000
1.000000
1.000000
1.000000
1.000000
1.000000
1.000000
1.000000
1.000000
1.000000
1.000000
1.000000
1.000000
1.000000
1.000000
1.000000
1.000000
1.000000
1.000000
1.000000
1.000000
1.000000
1.000000
1.000000
1.000000
1.000000
1.000000
1.000000
1.000000
1.000000
1.000000
1.000000
1.000000
1.000000
1.000000
1.000000
1.000000
1.000000
1.000000
1.000000
1.000000
1.000000
1.000000
1.000000
1.000000
1.000000
1.000000
1.000000
1.000000
1.000000
1.000000
1.000000
1.000000
1.000000
1.000000
1.000000
1.000000
1.000000
1.000000
1.000000
1.000000
1.000000
1.000000
1.000000
1.000000
1.000000
1.000000
1.000000
1.000000
1.000000
1.000000
1.000000
1.000000
1.000000
1.000000
1.000000
1.000000
1.000000
1.000000
1.000000
1.000000
1.000000
1.000000
1.000000
1.000000
1.000000
1.000000
1.000000
1.000000
1.000000
1.000000
1.000000
1.000000
1.000000
1.000000
1.000000
1.000000
1.000000
1.000000
1.000000
1.000000
1.000000
1.000000
1.000000
1.000000
1.000000
1.000000
1.000000
1.000000
1.000000
1.000000
VECTORS v double
3.525309 7.534697 0.000000
-6.432192 -7.954125 0.000000
7.578786 1.649283 0.000000
10.459253 -0.222813 0.000000
5.883489 -6.254169 0.000000
-2.592961 8.854120 0.000000
10.007508 0.005907 0.000000
10.009807 -0.000003 0.000000
10.009818 -0.000001 0.000000
10.009818 0.000000 0.000000
10.009818 0.000000 0.000000
10.009818 0.000000 0.000000
10.009818 -0.000000 0.000000
10.009818 -0.000000 0.000000
10.009818 -0.000000 0.000000
10.009818 -0.000000 0.000000
10.009818 0.000001 0.000000
10.009807 0.000003 0.000000
10.007506 -0.005910 0.000000
-2.596342 -8.848127 0.000000
5.867957 6.259994 0.000000
9.762459 0.431670 0.000000
7.541438 -1.925586 0.000000
-6.476360 8.639700 0.000000
3.524894 -7.534831 0.000000
-2.631046 -13.726701 0.000000
8.124890 -2.621349 0.000000
-5.431333 -9.791846 0.000000
10.108185 1.539758 0.000000
-1.115890 7.600582 0.000000
-2.559615 -4.820893 0.000000
10.025908 -0.049926 0.000000
-10.007844 0.002905 0.000000
-10.011833 -0.000005 0.000000
-10.011839 0.000000 0.000000
-10.011839 0.000000 0.000000
-10.011839 0.000000 0.000000
-10.011839 -0.000000 0.000000
-10.011839 -0.000000 0.000000
-10.011839 -0.000000 0.000000
-10.011839 -0.000000 0.000000
-10.011833 0.000005 0.000000
-10.007839 -0.002906 0.000000
10.025825 0.049857 0.000000
-2.554414 4.822018 0.000000
0.043242 -8.858174 0.000000
10.117585 -1.460671 0.000000
-5.442314 9.783343 0.000000
8.124885 2.621349 0.000000
-2.631046 13.726701 0.000000
9.311360 0.074318 0.000000
10.232921 1.751296 0.000000
0.780231 6.394553 0.000000
7.680681 1.187549 0.000000
-10.000148 -0.267247 0.000000
-3.660859 10.448490 0.000000
1.789367 18.379563 0.000000
10.039697 -0.027649 0.000000
10.008793 -0.000028 0.000000
10.008787 -0.000000 0.000000
10.008787 0.000000 0.000000
10.008787 0.000000 0.000000
10.008787 -0.000000 0.000000
10.008787 -0.000000 0.000000
10.008787 -0.000000 0.000000
10.008787 0.000000 0.000000
10.008793 0.000028 0.000000
10.039770 0.027713 0.000000
1.784351 -18.380657 0.000000
-3.640970 -10.465574 0.000000
-10.000238 0.266718 0.000000
7.556439 -1.011803 0.000000
0.813145 -5.219899 0.000000
9.509790 -2.803740 0.000000
9.311389 -0.074264 0.000000
-0.496140 -3.684353 0.000000
-6.835364 -10.619610 0.000000
-4.737686 -5.513495 0.000000
10.593948 -4.599213 0.000000
3.098210 -10.164745 0.000000
-10.837852 5.693151 0.000000
-10.011636 0.249421 0.000000
-10.019225 -0.004281 0.000000
-10.014088 -0.000020 0.000000
-10.014082 -0.000000 0.000000
-10.014082 0.000000 0.000000
-10.014082 0.000000 0.000000
-10.014082 -0.000000 0.000000
-10.014082 0.000000 0.000000
-10.014082 -0.000000 0.000000
-10.014082 0.000000 0.000000
-10.014088 0.000020 0.000000
-10.019214 0.004273 0.000000
-10.011639 -0.249310 0.000000
-11.032021 -4.533203 0.000000
2.090043 10.388937 0.000000
12.040746 3.833023 0.000000
-4.881680 5.045517 0.000000
-6.835369 10.619608 0.000000
-0.496139 3.684354 0.000000
-7.331678 9.549367 0.000000
-8.258610 4.333174 0.000000
-8.757946 -4.922639 0.000000
6.243532 -8.342204 0.000000
-6.423799 7.967115 0.000000
-9.999156 -0.019054 0.000000
9.920247 -0.198146 0.000000
10.007885 0.000914 0.000000
10.009098 -0.000005 0.000000
10.009103 0.000000 0.000000
10.009103 0.000000 0.000000
10.009103 0.000000 0.000000
10.009103 -0.000000 0.000000
10.009103 -0.000000 0.000000
10.009103 -0.000000 0.000000
10.009103 -0.000000 0.000000
10.009098 0.000005 0.000000
10.007886 -0.000914 0.000000
9.920267 0.198059 0.000000
-9.999908 0.018380 0.000000
-7.663817 -7.606898 0.000000
7.088525 7.454870 0.000000
-8.757472 4.903576 0.000000
-8.216113 -4.377631 0.000000
-7.336732 -9.522595 0.000000
-1.125583 -6.325266 0.000000
-1.992896 -10.927115 0.000000
-9.994269 0.083659 0.000000
-7.668576 10.681229 0.000000
2.985740 10.821767 0.000000
-10.045839 0.047495 0.000000
-10.015781 -0.000233 0.000000
-10.015795 0.000005 0.000000
-10.015793 -0.000000 0.000000
-10.015793 0.000000 0.000000
-10.015793 0.000000 0.000000
-10.015793 0.000000 0.000000
-10.015793 -0.000000 0.000000
-10.015793 -0.000000 0.000000
-10.015793 -0.000000 0.000000
-10.015793 -0.000000 0.000000
-10.015793 0.000000 0.000000
-10.015795 -0.000005 0.000000
-10.015780 0.000228 0.000000
-10.015539 0.064066 0.000000
3.232215 -10.419193 0.000000
-7.890942 -10.082280 0.000000
-9.864624 0.329304 0.000000
-1.992459 10.927239 0.000000
-1.125587 6.325269 0.000000
-0.158593 -4.341086 0.000000
1.484051 3.471592 0.000000
-9.613025 -1.175525 0.000000
-10.155739 0.126454 0.000000
-13.703806 2.954183 0.000000
9.990054 -0.040762 0.000000
10.010552 0.000159 0.000000
10.010565 -0.000005 0.000000
10.010572 0.000000 0.000000
10.010572 -0.000000 0.000000
10.010572 0.000000 0.000000
10.010572 0.000000 0.000000
10.010572 -0.000000 0.000000
10.010572 -0.000000 0.000000
10.010572 -0.000000 0.000000
10.010572 0.000000 0.000000
10.010572 -0.000000 0.000000
10.010565 0.000005 0.000000
10.010553 -0.000161 0.000000
9.996198 0.043414 0.000000
-13.293970 -2.149609 0.000000
-10.181792 -0.250812 0.000000
-9.619116 1.186257 0.000000
1.478888 -3.475041 0.000000
-0.155897 4.362743 0.000000
4.837053 -9.997753 0.000000
10.488357 1.829690 0.000000
1.682432 -3.376045 0.000000
-4.611825 6.344272 0.000000
9.986708 0.008966 0.000000
-10.010692 0.003921 0.000000
-10.016572 -0.000012 0.000000
-10.016585 -0.000000 0.000000
-10.016585 0.000000 0.000000
-10.016585 0.000000 0.000000
-10.016585 -0.000000 0.000000
-10.016585 0.000000 0.000000
-10.016585 -0.000000 0.000000
-10.016585 -0.000000 0.000000
-10.016585 -0.000000 0.000000
-10.016585 -0.000000 0.000000
-10.016585 -0.000000 0.000000
-10.016585 0.000000 0.000000
-10.016572 0.000012 0.000000
-10.010629 -0.003961 0.000000
9.984665 -0.004227 0.000000
-4.839045 -7.323576 0.000000
1.678545 3.374219 0.000000
11.163319 -2.121987 0.000000
4.837053 9.997753 0.000000
-5.852835 6.411459 0.000000
-9.862059 -1.571121 0.000000
6.372849 -7.047817 0.000000
0.285460 -5.914162 0.000000
5.783034 0.991062 0.000000
10.026571 -0.009537 0.000000
10.012632 -0.000058 0.000000
10.012615 -0.000000 0.000000
10.012615 0.000000 0.000000
10.012615 0.000000 0.000000
10.012615 0.000000 0.000000
10.012615 0.000000 0.000000
10.012615 -0.000000 0.000000
10.012615 -0.000000 0.000000
10.012615 -0.000000 0.000000
10.012615 -0.000000 0.000000
10.012615 -0.000000 0.000000
10.012615 0.000001 0.000000
10.012632 0.000058 0.000000
10.026879 0.009641 0.000000
5.803428 -0.976069 0.000000
0.301044 5.897165 0.000000
6.184390 7.195463 0.000000
-9.861761 1.570053 0.000000
-5.848328 -6.411320 0.000000
-9.996506 0.040051 0.000000
-3.933244 -8.257699 0.000000
2.673946 -3.369875 0.000000
8.708934 4.826932 0.000000
-1.358293 17.799038 0.000000
-10.080399 -0.051314 0.000000
-10.016512 -0.000082 0.000000
-10.016490 -0.000001 0.000000
-10.016490 0.000000 0.000000
-10.016490 -0.000000 0.000000
-10.016490 0.000000 0.000000
-10.016490 0.000000 0.000000
-10.016490 -0.000000 0.000000
-10.016490 -0.000000 0.000000
-10.016490 -0.000000 0.000000
-10.016490 0.000000 0.000000
-10.016490 -0.000000 0.000000
-10.016490 0.000001 0.000000
-10.016512 0.000082 0.000000
-10.079435 0.050822 0.000000
-1.391363 -17.798146 0.000000
8.576643 -5.290697 0.000000
2.683422 3.361434 0.000000
-3.933243 8.257695 0.000000
-9.996507 -0.040052 0.000000
-11.495374 -1.077752 0.000000
-11.165008 -5.648772 0.000000
-4.869528 8.603680 0.000000
-8.191922 -1.602128 0.000000
-10.024808 -0.013465 0.000000
9.992589 0.023723 0.000000
10.014565 -0.000011 0.000000
10.014580 -0.000000 0.000000
10.014581 0.000000 0.000000
10.014581 -0.000000 0.000000
10.014581 0.000000 0.000000
10.014581 0.000000 0.000000
10.014581 -0.000000 0.000000
10.014581 -0.000000 0.000000
10.014581 -0.000000 0.000000
10.014581 0.000000 0.000000
10.014581 -0.000000 0.000000
10.014580 0.000000 0.000000
10.014565 0.000011 0.000000
9.992784 -0.023609 0.000000
-10.024001 0.014179 0.000000
-8.065858 1.753179 0.000000
-4.860958 -8.608106 0.000000
-11.165571 5.648002 0.000000
-11.495377 1.077755 0.000000
-10.022322 -0.008444 0.000000
5.977981 -5.256173 0.000000
-0.845827 15.813019 0.000000
-7.138706 -7.121602 0.000000
-10.031427 -0.024989 0.000000
-10.015813 0.000003 0.000000
-10.015795 -0.000005 0.000000
-10.015794 0.000000 0.000000
-10.015794 0.000000 0.000000
-10.015794 -0.000000 0.000000
-10.015794 0.000000 0.000000
-10.015794 0.000000 0.000000
-10.015794 -0.000000 0.000000
-10.015794 -0.000000 0.000000
-10.015794 -0.000000 0.000000
-10.015794 0.000000 0.000000
-10.015794 -0.000000 0.000000
-10.015794 -0.000000 0.000000
-10.015795 0.000006 0.000000
-10.015814 -0.000003 0.000000
-10.030808 0.025165 0.000000
-7.350857 6.908767 0.000000
-0.905304 -15.891650 0.000000
5.979555 5.256117 0.000000
-10.022322 0.008444 0.000000
-9.999491 0.012198 0.000000