# vtk DataFile Version 4.0
hesp visualization file
ASCII
DATASET UNSTRUCTURED_GRID
POINTS 1250 double
30.240766 1.122651 4.000000
30.240764 2.244926 4.000000
30.240764 3.367386 4.000000
30.240764 4.489848 4.000000
30.240764 5.612310 4.000000
30.240764 6.734772 4.000000
30.240764 7.857234 4.000000
30.240764 8.979696 4.000000
30.240764 10.102158 4.000000
30.240764 11.224620 4.000000
30.240764 12.347083 4.000000
30.240764 13.469545 4.000000
30.240764 14.592007 4.000000
30.240764 15.714469 4.000000
30.240764 16.836931 4.000000
30.240764 17.959393 4.000000
30.240764 19.081855 4.000000
30.240764 20.204317 4.000000
30.240764 21.326779 4.000000
30.240764 22.449241 4.000000
30.240764 23.571703 4.000000
30.240764 24.694165 4.000000
30.240764 25.816627 4.000000
30.240764 26.939087 4.000000
30.240766 28.061362 4.000000
31.085689 1.122590 4.000000
31.085688 2.244925 4.000000
31.085688 3.367386 4.000000
31.085688 4.489848 4.000000
31.085688 5.612310 4.000000
31.085688 6.734772 4.000000
31.085688 7.857234 4.000000
31.085688 8.979696 4.000000
31.085688 10.102158 4.000000
31.085688 11.224620 4.000000
31.085688 12.347083 4.000000
31.085688 13.469545 4.000000
31.085688 14.592007 4.000000
31.085688 15.714469 4.000000
31.085688 16.836931 4.000000
31.085688 17.959393 4.000000
31.085688 19.081855 4.000000
31.085688 20.204317 4.000000
31.085688 21.326779 4.000000
31.085688 22.449241 4.000000
31.085688 23.571703 4.000000
31.085688 24.694165 4.000000
31.085688 25.816627 4.000000
31.085688 26.939089 4.000000
31.085689 28.061423 4.000000
31.567336 1.122606 4.000000
31.567335 2.244925 4.000000
31.567335 3.367386 4.000000
31.567335 4.489848 4.000000
31.567335 5.612310 4.000000
31.567335 6.734772 4.000000
31.567335 7.857234 4.000000
31.567335 8.979696 4.000000
31.567335 10.102158 4.000000
31.567335 11.224620 4.000000
31.567335 12.347083 4.000000
31.567335 13.469545 4.000000
31.567335 14.592007 4.000000
31.567335 15.714469 4.000000
31.567335 16.836931 4.000000
31.567335 17.959393 4.000000
31.567335 19.081855 4.000000
31.567335 20.204317 4.000000
31.567335 21.326779 4.000000
31.567335 22.449241 4.000000
31.567335 23.571703 4.000000
31.567335 24.694165 4.000000
31.567335 25.816627 4.000000
31.567335 26.939088 4.000000
31.567336 28.061408 4.000000
32.689848 1.122605 4.000000
32.689848 2.244925 4.000000
32.689848 3.367386 4.000000
32.689848 4.489848 4.000000
32.689848 5.612310 4.000000
32.689848 6.734772 4.000000
32.689848 7.857234 4.000000
32.689848 8.979696 4.000000
32.689848 10.102158 4.000000
32.689848 11.224620 4.000000
32.689848 12.347083 4.000000
32.689848 13.469545 4.000000
32.689848 14.592007 4.000000
32.689848 15.714469 4.000000
32.689848 16.836931 4.000000
32.689848 17.959393 4.000000
32.689848 19.081855 4.000000
32.689848 20.204317 4.000000
32.689848 21.326779 4.000000
32.689848 22.449241 4.000000
32.689848 23.571703 4.000000
32.689848 24.694165 4.000000
32.689848 25.816627 4.000000
32.689848 26.939088 4.000000
32.689848 28.061408 4.000000
33.812310 1.122605 4.000000
33.812310 2.244925 4.000000
33.812310 3.367386 4.000000
33.812310 4.489848 4.000000
33.812310 5.612310 4.000000
33.812310 6.734772 4.000000
33.812310 7.857234 4.000000
33.812310 8.979696 4.000000
33.812310 10.102158 4.000000
33.812310 11.224620 4.000000
33.812310 12.347083 4.000000
33.812310 13.469545 4.000000
33.812310 14.592007 4.000000
33.812310 15.714469 4.000000
33.812310 16.836931 4.000000
33.812310 17.959393 4.000000
33.812310 19.081855 4.000000
33.812310 20.204317 4.000000
33.812310 21.326779 4.000000
33.812310 22.449241 4.000000
33.812310 23.571703 4.000000
33.812310 24.694165 4.000000
33.812310 25.816627 4.000000
33.812310 26.939088 4.000000
33.812310 28.061408 4.000000
34.934772 1.122605 4.000000
34.934772 2.244925 4.000000
34.934772 3.367386 4.000000
34.934772 4.489848 4.000000
34.934772 5.612310 4.000000
34.934772 6.734772 4.000000
34.934772 7.857234 4.000000
34.934772 8.979696 4.000000
34.934772 10.102158 4.000000
34.934772 11.224620 4.000000
34.934772 12.347083 4.000000
34.934772 13.469545 4.000000
34.934772 14.592007 4.000000
34.934772 15.714469 4.000000
34.934772 16.836931 4.000000
34.934772 17.959393 4.000000
34.934772 19.081855 4.000000
34.934772 20.204317 4.000000
34.934772 21.326779 4.000000
34.934772 22.449241 4.000000
34.934772 23.571703 4.000000
34.934772 24.694165 4.000000
34.934772 25.816627 4.000000
34.934772 26.939088 4.000000
34.934772 28.061408 4.000000
36.057234 1.122605 4.000000
36.057234 2.244925 4.000000
36.057234 3.367386 4.000000
36.057234 4.489848 4.000000
36.057234 5.612310 4.000000
36.057234 6.734772 4.000000
36.057234 7.857234 4.000000
36.057234 8.979696 4.000000
36.057234 10.102158 4.000000
36.057234 11.224620 4.000000
36.057234 12.347083 4.000000
36.057234 13.469545 4.000000
36.057234 14.592007 4.000000
36.057234 15.714469 4.000000
36.057234 16.836931 4.000000
36.057234 17.959393 4.000000
36.057234 19.081855 4.000000
36.057234 20.204317 4.000000
36.057234 21.326779 4.000000
36.057234 22.449241 4.000000
36.057234 23.571703 4.000000
36.057234 24.694165 4.000000
36.057234 25.816627 4.000000
36.057234 26.939088 4.000000
36.057234 28.061408 4.000000
37.179696 1.122605 4.000000
37.179696 2.244925 4.000000
37.179696 3.367386 4.000000
37.179696 4.489848 4.000000
37.179696 5.612310 4.000000
37.179696 6.734772 4.000000
37.179696 7.857234 4.000000
37.179696 8.979696 4.000000
37.179696 10.102158 4.000000
37.179696 11.224620 4.000000
37.179696 12.347083 4.000000
37.179696 13.469545 4.000000
37.179696 14.592007 4.000000
37.179696 15.714469 4.000000
37.179696 16.836931 4.000000
37.179696 17.959393 4.000000
37.179696 19.081855 4.000000
37.179696 20.204317 4.000000
37.179696 21.326779 4.000000
37.179696 22.449241 4.000000
37.179696 23.571703 4.000000
37.179696 24.694165 4.000000
37.179696 25.816627 4.000000
37.179696 26.939088 4.000000
37.179696 28.061408 4.000000
38.302158 1.122605 4.000000
38.302158 2.244925 4.000000
38.302158 3.367386 4.000000
38.302158 4.489848 4.000000
38.302158 5.612310 4.000000
38.302158 6.734772 4.000000
38.302158 7.857234 4.000000
38.302158 8.979696 4.000000
38.302158 10.102158 4.000000
38.302158 11.224620 4.000000
38.302158 12.347083 4.000000
38.302158 13.469545 4.000000
38.302158 14.592007 4.000000
38.302158 15.714469 4.000000
38.302158 16.836931 4.000000
38.302158 17.959393 4.000000
38.302158 19.081855 4.000000
38.302158 20.204317 4.000000
38.302158 21.326779 4.000000
38.302158 22.449241 4.000000
38.302158 23.571703 4.000000
38.302158 24.694165 4.000000
38.302158 25.816627 4.000000
38.302158 26.939088 4.000000
38.302158 28.061408 4.000000
39.424620 1.122605 4.000000
39.424620 2.244925 4.000000
39.424620 3.367386 4.000000
39.424620 4.489848 4.000000
39.424620 5.612310 4.000000
39.424620 6.734772 4.000000
39.424620 7.857234 4.000000
39.424620 8.979696 4.000000
39.424620 10.102158 4.000000
39.424620 11.224620 4.000000
39.424620 12.347083 4.000000
39.424620 13.469545 4.000000
39.424620 14.592007 4.000000
39.424620 15.714469 4.000000
39.424620 16.836931 4.000000
39.424620 17.959393 4.000000
39.424620 19.081855 4.000000
39.424620 20.204317 4.000000
39.424620 21.326779 4.000000
39.424620 22.449241 4.000000
39.424620 23.571703 4.000000
39.424620 24.694165 4.000000
39.424620 25.816627 4.000000
39.424620 26.939088 4.000000
39.424620 28.061408 4.000000
40.547083 1.122605 4.000000
40.547083 2.244925 4.000000
40.547083 3.367386 4.000000
40.547083 4.489848 4.000000
40.547083 5.612310 4.000000
40.547083 6.734772 4.000000
40.547083 7.857234 4.000000
40.547083 8.979696 4.000000
40.547083 10.102158 4.000000
40.547083 11.224620 4.000000
40.547083 12.347083 4.000000
40.547083 13.469545 4.000000
40.547083 14.592007 4.000000
40.547083 15.714469 4.000000
40.547083 16.836931 4.000000
40.547083 17.959393 4.000000
40.547083 19.081855 4.000000
40.547083 20.204317 4.000000
40.547083 21.326779 4.000000
40.547083 22.449241 4.000000
40.547083 23.571703 4.000000
40.547083 24.694165 4.000000
40.547083 25.816627 4.000000
40.547083 26.939088 4.000000
40.547083 28.061408 4.000000
41.669545 1.122605 4.000000
41.669545 2.244925 4.000000
41.669545 3.367386 4.000000
41.669545 4.489848 4.000000
41.669545 5.612310 4.000000
41.669545 6.734772 4.000000
41.669545 7.857234 4.000000
41.669545 8.979696 4.000000
41.669545 10.102158 4.000000
41.669545 11.224620 4.000000
41.669545 12.347083 4.000000
41.669545 13.469545 4.000000
41.669545 14.592007 4.000000
41.669545 15.714469 4.000000
41.669545 16.836931 4.000000
41.669545 17.959393 4.000000
41.669545 19.081855 4.000000
41.669545 20.204317 4.000000
41.669545 21.326779 4.000000
41.669545 22.449241 4.000000
41.669545 23.571703 4.000000
41.669545 24.694165 4.000000
41.669545 25.816627 4.000000
41.669545 26.939088 4.000000
41.669545 28.061408 4.000000
42.792007 1.122605 4.000000
42.792007 2.244925 4.000000
42.792007 3.367386 4.000000
42.792007 4.489848 4.000000
42.792007 5.612310 4.000000
42.792007 6.734772 4.000000
42.792007 7.857234 4.000000
42.792007 8.979696 4.000000
42.792007 10.102158 4.000000
42.792007 11.224620 4.000000
42.792007 12.347083 4.000000
42.792007 13.469545 4.000000
42.792007 14.592007 4.000000
42.792007 15.714469 4.000000
42.792007 16.836931 4.000000
42.792007 17.959393 4.000000
42.792007 19.081855 4.000000
42.792007 20.204317 4.000000
42.792007 21.326779 4.000000
42.792007 22.449241 4.000000
42.792007 23.571703 4.000000
42.792007 24.694165 4.000000
42.792007 25.816627 4.000000
42.792007 26.939088 4.000000
42.792007 28.061408 4.000000
43.914469 1.122605 4.000000
43.914469 2.244925 4.000000
43.914469 3.367386 4.000000
43.914469 4.489848 4.000000
43.914469 5.612310 4.000000
43.914469 6.734772 4.000000
43.914469 7.857234 4.000000
43.914469 8.979696 4.000000
43.914469 10.102158 4.000000
43.914469 11.224620 4.000000
43.914469 12.347083 4.000000
43.914469 13.469545 4.000000
43.914469 14.592007 4.000000
43.914469 15.714469 4.000000
43.914469 16.836931 4.000000
43.914469 17.959393 4.000000
43.914469 19.081855 4.000000
43.914469 20.204317 4.000000
43.914469 21.326779 4.000000
43.914469 22.449241 4.000000
[...]
POINT_DATA 1250
SCALARS m double
LOOKUP_TABLE default
1.000000
1.000000
1.000000
1.000000
1.000000
1.000000
1.000000
1.000000
1.000000
1.000000
1.000000
1.000000
1.000000
1.000000
1.000000
1.000000
1.000000
1.000000
1.000000
1.000000
1.000000
1.000000
1.000000
1.000000
1.000000
1.000000
1.000000
1.000000
1.000000
1.000000
1.000000
1.000000
1.000000
1.000000
1.000000
1.000000
1.000000
1.000000
1.000000
1.000000
1.000000
1.000000
1.000000
1.000000
1.000000
1.000000
1.000000
1.000000
1.000000
1.000000
1.000000
1.000000
1.000000
1.000000
1.000000
1.000000
1.000000
1.000000
1.000000
1.000000
1.000000
1.000000
1.000000
1.000000
1.000000
1.000000
1.000000
1.000000
1.000000
1.000000
1.000000
1.000000
1.000000
1.000000
1.000000
1.000000
1.000000
1.000000
1.000000
1.000000
1.000000
1.000000
1.000000
1.000000
1.000000
1.000000
1.000000
1.000000
1.000000
1.000000
1.000000
1.000000
1.000000
1.000000
1.000000
1.000000
1.000000
1.000000
1.000000
1.000000
1.000000
1.000000
1.000000
1.000000
1.000000
1.000000
1.000000
1.000000
1.000000
1.000000
1.000000
1.000000
1.000000
1.000000
1.000000
1.000000
1.000000
1.000000
1.000000
1.000000
1.000000
1.000000
1.000000
1.000000
1.000000
1.000000
1.000000
1.000000
1.000000
1.000000
1.000000
1.000000
1.000000
1.000000
1.000000
1.000000
1.000000
1.000000
1.000000
1.000000
1.000000
1.000000
1.000000
1.000000
1.000000
1.000000
1.000000
1.000000
1.000000
1.000000
1.000000
1.000000
1.000000
1.000000
1.000000
1.000000
1.000000
1.000000
1.000000
1.000000
1.000000
1.000000
1.000000
1.000000
1.000000
1.000000
1.000000
1.000000
1.000000
1.000000
1.000000
1.000000
1.000000
1.000000
1.000000
1.000000
1.000000
1.000000
1.000000
1.000000
1.000000
1.000000
1.000000
1.000000
1.000000
1.000000
1.000000
1.000000
1.000000
1.000000
1.000000
1.000000
1.000000
1.000000
1.000000
1.000000
1.000000
1.000000
1.000000
1.000000
1.000000
1.000000
1.000000
1.000000
1.000000
1.000000
1.000000
1.000000
1.000000
1.000000
1.000000
1.000000
1.000000
1.000000
1.000000
1.000000
1.000000
1.000000
1.000000
1.000000
1.000000
1.000000
1.000000
1.000000
1.000000
1.000000
1.000000
1.000000
1.000000
1.000000
1.000000
1.000000
1.000000
1.000000
1.000000
1.000000
1.000000
1.000000
1.000000
1.000000
1.000000
1.000000
1.000000
1.000000
1.000000
1.000000
1.000000
1.000000
1.000000
1.000000
1.000000
1.000000
1.000000
1.000000
1.000000
1.000000
1.000000
1.000000
1.000000
1.000000
1.000000
1.000000
1.000000
1.000000
1.000000
1.000000
1.000000
1.000000
1.000000
1.000000
1.000000
1.000000
1.000000
1.000000
1.000000
1.000000
1.000000
1.000000
1.000000
1.000000
1.000000
1.000000
1.000000
1.000000
1.000000
1.000000
1.000000
1.000000
1.000000
1.000000
1.000000
1.000000
1.000000
1.000000
1.000000
1.000000
1.000000
1.000000
1.000000
1.000000
1.000000
1.000000
1.000000
1.000000
1.000000
1.000000
1.000000
1.000000
1.000000
1.000000
1.000000
1.000000
1.000000
1.000000
1.000000
1.000000
1.000000
1.000000
1.000000
1.000000
1.000000
1.000000
1.000000
1.000000
1.000000
1.000000
1.000000
1.000000
1.000000
1.000000
1.000000
1.000000
1.000000
1.000000
1.000000
1.000000
1.000000
1.000000
1.000000
1.000000
1.000000
1.000000
1.000000
1.000000
1.000000
1.000000
1.000000
1.000000
1.000000
1.000000
1.000000
1.000000
1.000000
1.000000
1.000000
1.000000
1.000000
1.000000
1.000000
1.000000
1.000000
1.000000
1.000000
1.000000
1.000000
1.000000
1.000000
1.000000
1.000000
1.000000
1.000000
1.000000
1.000000
1.000000
1.000000
1.000000
1.000000
1.000000
1.000000
1.000000
1.000000
1.000000
1.000000
1.000000
1.000000
1.000000
1.000000
1.000000
1.000000
1.000000
1.000000
1.000000
1.000000
1.000000
1.000000
1.000000
1.000000
1.000000
1.000000
1.000000
1.000000
1.000000
1.000000
1.000000
1.000000
1.000000
1.000000
1.000000
1.000000
1.000000
1.000000
1.000000
1.000000
1.000000
1.000000
1.000000
1.000000
1.000000
1.000000
1.000000
1.000000
1.000000
1.000000
1.000000
1.000000
1.000000
1.000000
1.000000
1.000000
1.000000
1.000000
1.000000
1.000000
1.000000
1.000000
1.000000
1.000000
1.000000
1.000000
1.000000
1.000000
1.000000
1.000000
1.000000
1.000000
1.000000
1.000000
1.000000
1.000000
1.000000
1.000000
1.000000
1.000000
1.000000
1.000000
1.000000
1.000000
1.000000
1.000000
1.000000
1.000000
1.000000
1.000000
1.000000
1.000000
1.000000
1.000000
1.000000
1.000000
1.000000
1.000000
1.000000
1.000000
1.000000
1.000000
1.000000
1.000000
1.000000
1.000000
1.000000
1.000000
1.000000
1.000000
1.000000
1.000000
1.000000
1.000000
1.000000
1.000000
1.000000
1.000000
1.000000
1.000000
1.000000
1.000000
1.000000
1.000000
1.000000
1.000000
1.000000
1.000000
1.000000
1.000000
1.000000
1.000000
1.000000
1.000000
1.000000
1.000000
1.000000
1.000000
1.000000
1.000000
1.000000
1.000000
1.000000
1.000000
1.000000
1.000000
1.000000
1.000000
1.000000
1.000000
1.000000
1.000000
1.000000
1.000000
1.000000
1.000000
1.000000
1.000000
1.000000
1.000000
1.000000
1.000000
1.000000
1.000000
1.000000
1.000000
1.000000
1.000000
1.000000
1.000000
1.000000
1.000000
1.000000
1.000000
1.000000
1.000000
1.000000
1.000000
1.000000
1.000000
1.000000
1.000000
1.000000
1.000000
1.000000
1.000000
1.000000
1.000000
1.000000
1.000000
1.000000
1.000000
1.000000
1.000000
1.000000
1.000000
1.000000
1.000000
1.000000
1.000000
1.000000
1.000000
1.000000
1.000000
1.000000
1.000000
1.000000
1.000000
1.000000
1.000000
1.000000
1.000000
1.000000
1.000000
1.000000
1.000000
1.000000
1.000000
1.000000
1.000000
1.000000
1.000000
1.000000
1.000000
1.000000
1.000000
1.000000
1.000000
1.000000
1.000000
1.000000
1.000000
1.000000
1.000000
1.000000
1.000000
1.000000
1.000000
1.000000
1.000000
1.000000
1.000000
1.000000
1.000000
1.000000
1.000000
1.000000
1.000000
1.000000
1.000000
1.000000
1.000000
1.000000
1.000000
1.000000
1.000000
1.000000
1.000000
1.000000
1.000000
1.000000
1.000000
1.000000
1.000000
1.000000
1.000000
1.000000
1.000000
1.000000
1.000000
1.000000
1.000000
1.000000
1.000000
1.000000
1.000000
1.000000
1.000000
1.000000
1.000000
1.000000
1.000000
1.000000
1.000000
1.000000
1.000000
1.000000
1.000000
1.000000
1.000000
1.000000
1.000000
1.000000
1.000000
1.000000
1.000000
1.000000
1.000000
1.000000
1.000000
1.000000
1.000000
1.000000
1.000000
1.000000
1.000000
1.000000
1.000000
1.000000
1.000000
1.000000
1.000000
1.000000
1.000000
1.000000
1.000000
1.000000
1.000000
1.000000
1.000000
1.000000
1.000000
1.000000
1.000000
1.000000
1.000000
1.000000
1.000000
1.000000
1.000000
1.000000
1.000000
1.000000
1.000000
1.000000
1.000000
1.000000
1.000000
1.000000
1.000000
1.000000
1.000000
1.000000
1.000000
1.000000
1.000000
1.000000
1.000000
1.000000
1.000000
1.000000
1.000000
1.000000
1.000000
1.000000
1.000000
1.000000
1.000000
1.000000
1.000000
1.000000
1.000000
1.000000
1.000000
1.000000
1.000000
1.000000
1.000000
1.000000
1.000000
1.000000
1.000000
1.000000
1.000000
1.000000
1.000000
1.000000
1.000000
1.000000
1.000000
1.000000
1.000000
1.000000
1.000000
1.000000
1.000000
1.000000
1.000000
1.000000
1.000000
1.000000
1.000000
1.000000
1.000000
1.000000
1.000000
1.000000
1.000000
1.000000
1.000000
1.000000
1.000000
1.000000
1.000000
1.000000
1.000000
1.000000
1.000000
1.000000
1.000000
1.000000
1.000000
1.000000
1.000000
1.000000
1.000000
1.000000
1.000000
1.000000
1.000000
1.000000
1.000000
1.000000
1.000000
1.000000
1.000000
1.000000
1.000000
1.000000
1.000000
1.000000
1.000000
1.000000
1.000000
1.000000
1.000000
1.000000
1.000000
1.000000
1.000000
1.000000
1.000000
1.000000
1.000000
1.000000
1.000000
1.000000
1.000000
1.000000
1.000000
1.000000
1.000000
1.000000
1.000000
1.000000
1.000000
1.000000
1.000000
1.000000
1.000000
1.000000
1.000000
1.000000
1.000000
1.000000
1.000000
1.000000
1.000000
1.000000
1.000000
1.000000
1.000000
1.000000
1.000000
1.000000
1.000000
1.000000
1.000000
1.000000
1.000000
1.000000
1.000000
1.000000
1.000000
1.000000
1.000000
1.000000
1.000000
1.000000
1.000000
1.000000
1.000000
1.000000
1.000000
1.000000
1.000000
1.000000
1.000000
1.000000
1.000000
1.000000
1.000000
1.000000
1.000000
1.000000
1.000000
1.000000
1.000000
1.000000
1.000000
1.000000
1.000000
1.000000
1.000000
1.000000
1.000000
1.000000
1.000000
1.000000
1.000000
1.000000
1.000000
1.000000
1.000000
1.000000
1.000000
1.000000
1.000000
1.000000
1.000000
1.000000
1.000000
1.000000
1.000000
1.000000
1.000000
1.000000
1.000000
1.000000
1.000000
1.000000
1.000000
1.000000
1.000000
1.000000
1.000000
1.000000
1.000000
1.000000
1.000000
1.000000
1.000000
1.000000
1.000000
1.000000
1.000000
1.000000
1.000000
1.000000
1.000000
1.000000
1.000000
1.000000
1.000000
1.000000
1.000000
1.000000
1.000000
1.000000
1.000000
1.000000
1.000000
1.000000
1.000000
1.000000
1.000000
1.000000
1.000000
1.000000
1.000000
1.000000
1.000000
1.000000
1.000000
1.000000
1.000000
1.000000
1.000000
1.000000
1.000000
1.000000
1.000000
1.000000
1.000000
1.000000
1.000000
1.000000
1.000000
1.000000
1.000000
1.000000
1.000000
1.000000
1.000000
1.000000
1.000000
1.000000
1.000000
1.000000
1.000000
1.000000
1.000000
1.000000
1.000000
1.000000
1.000000
1.000000
1.000000
1.000000
1.000000
1.000000
1.000000
1.000000
1.000000
1.000000
1.000000
1.000000
1.000000
1.000000
1.000000
1.000000
1.000000
1.000000
1.000000
1.000000
1.000000
1.000000
1.000000
1.000000
1.000000
1.000000
1.000000
1.000000
1.000000
1.000000
1.000000
1.000000
1.000000
1.000000
1.000000
1.000000
1.000000
1.000000
1.000000
1.000000
1.000000
1.000000
1.000000
1.000000
1.000000
1.000000
1.000000
1.000000
1.000000
1.000000
1.000000
1.000000
1.000000
1.000000
1.000000
1.000000
1.000000
1.000000
1.000000
1.000000
1.000000
1.000000
1.000000
1.000000
1.000000
1.000000
1.000000
1.000000
1.000000
1.000000
1.000000
1.000000
1.000000
1.000000
1.000000
1.000000
1.000000
1.000000
1.000000
1.000000
1.000000
1.000000
1.000000
1.000000
1.000000
1.000000
1.000000
1.000000
1.000000
1.000000
1.000000
1.000000
1.000000
1.000000
1.000000
1.000000
1.000000
1.000000
1.000000
1.000000
1.000000
1.000000
1.000000
1.000000
1.000000
1.000000
1.000000
1.000000
1.000000
1.000000
1.000000
1.000000
1.000000
1.000000
1.000000
1.000000
1.000000
1.000000
1.000000
1.000000
1.000000
1.000000
1.000000
1.000000
1.000000
1.000000
1.000000
1.000000
1.000000
1.000000
1.000000
1.000000
1.000000
1.000000
1.000000
1.000000
1.000000
1.000000
1.000000
1.000000
1.000000
1.000000
1.000000
1.000000
1.000000
1.000000
1.000000
1.000000
1.000000
1.000000
1.000000
1.000000
1.000000
1.000000
1.000000
1.000000
1.000000
1.000000
1.000000
1.000000
1.000000
1.000000
1.000000
1.000000
1.000000
1.000000
1.000000
1.000000
1.000000
1.000000
1.000000
1.000000
1.000000
1.000000
1.000000
1.000000
1.000000
1.000000
1.000000
1.000000
1.000000
1.000000
1.000000
1.000000
1.000000
1.000000
1.000000
1.000000
1.000000
1.000000
1.000000
1.000000
1.000000
1.000000
1.000000
1.000000
1.000000
1.000000
1.000000
1.000000
1.000000
1.000000
1.000000
1.000000
1.000000
1.000000
1.000000
1.000000
1.000000
1.000000
1.000000
1.000000
1.000000
1.000000
1.000000
1.000000
1.000000
1.000000
1.000000
1.000000
1.000000
1.000000
1.000000
1.000000
1.000000
1.000000
1.000000
1.000000
1.000000
1.000000
1.000000
1.000000
1.000000
1.000000
1.000000
1.000000
1.000000
1.000000
1.000000
1.000000
1.000000
1.000000
1.000000
1.000000
1.000000
1.000000
1.000000
1.000000
1.000000
1.000000
1.000000
1.000000
1.000000
1.000000
1.000000
1.000000
1.000000
1.000000
1.000000
1.000000
1.000000
1.000000
VECTORS v double
-10.011427 0.002818 0.000000
-10.011472 0.000036 0.000000
-10.011472 -0.000000 0.000000
-10.011472 -0.000000 0.000000
-10.011472 0.000000 0.000000
-10.011472 0.000000 0.000000
-10.011472 -0.000000 0.000000
-10.011472 -0.000000 0.000000
-10.011472 0.000000 0.000000
-10.011472 -0.000000 0.000000
-10.011472 0.000000 0.000000
-10.011472 0.000000 0.000000
-10.011472 -0.000000 0.000000
-10.011472 -0.000000 0.000000
-10.011472 -0.000000 0.000000
-10.011472 0.000000 0.000000
-10.011472 -0.000000 0.000000
-10.011472 -0.000000 0.000000
-10.011472 0.000000 0.000000
-10.011472 0.000000 0.000000
-10.011472 -0.000000 0.000000
-10.011472 0.000000 0.000000
-10.011472 0.000000 0.000000
-10.011472 -0.000036 0.000000
-10.011427 -0.002818 0.000000
10.010366 0.001136 0.000000
10.010356 -0.000002 0.000000
10.010356 -0.000000 0.000000
10.010356 -0.000000 0.000000
10.010356 0.000000 0.000000
10.010356 0.000000 0.000000
10.010356 -0.000000 0.000000
10.010356 -0.000000 0.000000
10.010356 0.000000 0.000000
10.010356 -0.000000 0.000000
10.010356 -0.000000 0.000000
10.010356 0.000000 0.000000
10.010356 -0.000000 0.000000
10.010356 -0.000000 0.000000
10.010356 -0.000000 0.000000
10.010356 0.000000 0.000000
10.010356 -0.000000 0.000000
10.010356 -0.000000 0.000000
10.010356 0.000000 0.000000
10.010356 0.000000 0.000000
10.010356 -0.000000 0.000000
10.010356 0.000000 0.000000
10.010356 0.000000 0.000000
10.010356 0.000002 0.000000
10.010366 -0.001136 0.000000
-10.010862 0.001641 0.000000
-10.010895 0.000012 0.000000
-10.010896 -0.000000 0.000000
-10.010896 -0.000000 0.000000
-10.010896 0.000000 0.000000
-10.010896 -0.000000 0.000000
-10.010896 -0.000000 0.000000
-10.010896 -0.000000 0.000000
-10.010896 0.000000 0.000000
-10.010896 -0.000000 0.000000
-10.010896 -0.000000 0.000000
-10.010896 0.000000 0.000000
-10.010896 -0.000000 0.000000
-10.010896 -0.000000 0.000000
-10.010896 -0.000000 0.000000
-10.010896 0.000000 0.000000
-10.010896 -0.000000 0.000000
-10.010896 -0.000000 0.000000
-10.010896 0.000000 0.000000
-10.010896 0.000000 0.000000
-10.010896 -0.000000 0.000000
-10.010896 0.000000 0.000000
-10.010896 0.000000 0.000000
-10.010895 -0.000012 0.000000
-10.010862 -0.001641 0.000000
-10.000009 0.001590 0.000000
-10.000011 0.000011 0.000000
-10.000011 -0.000000 0.000000
-10.000011 -0.000000 0.000000
-10.000011 0.000000 0.000000
-10.000011 -0.000000 0.000000
-10.000011 -0.000000 0.000000
-10.000011 -0.000000 0.000000
-10.000011 0.000000 0.000000
-10.000011 -0.000000 0.000000
-10.000011 -0.000000 0.000000
-10.000011 0.000000 0.000000
-10.000011 -0.000000 0.000000
-10.000011 -0.000000 0.000000
-10.000011 -0.000000 0.000000
-10.000011 0.000000 0.000000
-10.000011 -0.000000 0.000000
-10.000011 -0.000000 0.000000
-10.000011 0.000000 0.000000
-10.000011 0.000000 0.000000
-10.000011 -0.000000 0.000000
-10.000011 0.000000 0.000000
-10.000011 0.000000 0.000000
-10.000011 -0.000011 0.000000
-10.000009 -0.001590 0.000000
-10.000000 0.001589 0.000000
-10.000000 0.000011 0.000000
-10.000000 -0.000000 0.000000
-10.000000 -0.000000 0.000000
-10.000000 0.000000 0.000000
-10.000000 -0.000000 0.000000
-10.000000 -0.000000 0.000000
-10.000000 -0.000000 0.000000
-10.000000 0.000000 0.000000
-10.000000 -0.000000 0.000000
-10.000000 -0.000000 0.000000
-10.000000 0.000000 0.000000
-10.000000 -0.000000 0.000000
-10.000000 -0.000000 0.000000
-10.000000 -0.000000 0.000000
-10.000000 0.000000 0.000000
-10.000000 -0.000000 0.000000
-10.000000 -0.000000 0.000000
-10.000000 0.000000 0.000000
-10.000000 0.000000 0.000000
-10.000000 -0.000000 0.000000
-10.000000 0.000000 0.000000
-10.000000 0.000000 0.000000
-10.000000 -0.000011 0.000000
-10.000000 -0.001589 0.000000
-10.000000 0.001589 0.000000
-10.000000 0.000011 0.000000
-10.000000 -0.000000 0.000000
-10.000000 -0.000000 0.000000
-10.000000 0.000000 0.000000
-10.000000 -0.000000 0.000000
-10.000000 -0.000000 0.000000
-10.000000 -0.000000 0.000000
-10.000000 0.000000 0.000000
-10.000000 -0.000000 0.000000
-10.000000 -0.000000 0.000000
-10.000000 0.000000 0.000000
-10.000000 -0.000000 0.000000
-10.000000 -0.000000 0.000000
-10.000000 -0.000000 0.000000
-10.000000 0.000000 0.000000
-10.000000 -0.000000 0.000000
-10.000000 -0.000000 0.000000
-10.000000 0.000000 0.000000
-10.000000 0.000000 0.000000
-10.000000 -0.000000 0.000000
-10.000000 0.000000 0.000000
-10.000000 0.000000 0.000000
-10.000000 -0.000011 0.000000
-10.000000 -0.001589 0.000000
-10.000000 0.001589 0.000000
-10.000000 0.000011 0.000000
-10.000000 -0.000000 0.000000
-10.000000 -0.000000 0.000000
-10.000000 0.000000 0.000000
-10.000000 -0.000000 0.000000
-10.000000 -0.000000 0.000000
-10.000000 -0.000000 0.000000
-10.000000 0.000000 0.000000
-10.000000 -0.000000 0.000000
-10.000000 -0.000000 0.000000
-10.000000 0.000000 0.000000
-10.000000 -0.000000 0.000000
-10.000000 -0.000000 0.000000
-10.000000 -0.000000 0.000000
-10.000000 0.000000 0.000000
-10.000000 -0.000000 0.000000
-10.000000 -0.000000 0.000000
-10.000000 0.000000 0.000000
-10.000000 0.000000 0.000000
-10.000000 -0.000000 0.000000
-10.000000 0.000000 0.000000
-10.000000 0.000000 0.000000
-10.000000 -0.000011 0.000000
-10.000000 -0.001589 0.000000
-10.000000 0.001589 0.000000
-10.000000 0.000011 0.000000
-10.000000 -0.000000 0.000000
-10.000000 -0.000000 0.000000
-10.000000 0.000000 0.000000
-10.000000 -0.000000 0.000000
-10.000000 -0.000000 0.000000
-10.000000 -0.000000 0.000000
-10.000000 0.000000 0.000000
-10.000000 -0.000000 0.000000
-10.000000 -0.000000 0.000000
-10.000000 0.000000 0.000000
-10.000000 -0.000000 0.000000
-10.000000 -0.000000 0.000000
-10.000000 -0.000000 0.000000
-10.000000 0.000000 0.000000
-10.000000 -0.000000 0.000000
-10.000000 -0.000000 0.000000
-10.000000 0.000000 0.000000
-10.000000 0.000000 0.000000
-10.000000 -0.000000 0.000000
-10.000000 0.000000 0.000000
-10.000000 0.000000 0.000000
-10.000000 -0.000011 0.000000
-10.000000 -0.001589 0.000000
-10.000000 0.001589 0.000000
-10.000000 0.000011 0.000000
-10.000000 -0.000000 0.000000
-10.000000 -0.000000 0.000000
-10.000000 0.000000 0.000000
-10.000000 -0.000000 0.000000
-10.000000 -0.000000 0.000000
-10.000000 -0.000000 0.000000
-10.000000 0.000000 0.000000
-10.000000 -0.000000 0.000000
-10.000000 0.000000 0.000000
-10.000000 0.000000 0.000000
-10.000000 -0.000000 0.000000
-10.000000 -0.000000 0.000000
-10.000000 -0.000000 0.000000
-10.000000 0.000000 0.000000
-10.000000 -0.000000 0.000000
-10.000000 -0.000000 0.000000
-10.000000 0.000000 0.000000
-10.000000 0.000000 0.000000
-10.000000 -0.000000 0.000000
-10.000000 0.000000 0.000000
-10.000000 0.000000 0.000000
-10.000000 -0.000011 0.000000
-10.000000 -0.001589 0.000000
-10.000000 0.001589 0.000000
-10.000000 0.000011 0.000000
-10.000000 -0.000000 0.000000
-10.000000 -0.000000 0.000000
-10.000000 0.000000 0.000000
-10.000000 -0.000000 0.000000
-10.000000 -0.000000 0.000000
-10.000000 -0.000000 0.000000
-10.000000 0.000000 0.000000
-10.000000 -0.000000 0.000000
-10.000000 -0.000000 0.000000
-10.000000 0.000000 0.000000
-10.000000 -0.000000 0.000000
-10.000000 -0.000000 0.000000
-10.000000 -0.000000 0.000000
-10.000000 0.000000 0.000000
-10.000000 -0.000000 0.000000
-10.000000 -0.000000 0.000000
-10.000000 0.000000 0.000000
-10.000000 0.000000 0.000000
-10.000000 -0.000000 0.000000
-10.000000 0.000000 0.000000
-10.000000 0.000000 0.000000
-10.000000 -0.000011 0.000000
-10.000000 -0.001589 0.000000
-10.000000 0.001589 0.000000
-10.000000 0.000011 0.000000
-10.000000 -0.000000 0.000000
-10.000000 -0.000000 0.000000
-10.000000 0.000000 0.000000
-10.000000 -0.000000 0.000000
-10.000000 -0.000000 0.000000
-10.000000 -0.000000 0.000000
-10.000000 0.000000 0.000000
-10.000000 -0.000000 0.000000
-10.000000 -0.000000 0.000000
-10.000000 0.000000 0.000000
-10.000000 -0.000000 0.000000
-10.000000 -0.000000 0.000000
-10.000000 -0.000000 0.000000
-10.000000 0.000000 0.000000
-10.000000 -0.000000 0.000000
-10.000000 -0.000000 0.000000
-10.000000 0.000000 0.000000
-10.000000 0.000000 0.000000
-10.000000 -0.000000 0.000000
-10.000000 0.000000 0.000000
-10.000000 0.000000 0.000000
-10.000000 -0.000011 0.000000
-10.000000 -0.001589 0.000000
-10.000000 0.001589 0.000000
-10.000000 0.000011 0.000000
-10.000000 -0.000000 0.000000
-10.000000 -0.000000 0.000000
-10.000000 0.000000 0.000000
-10.000000 -0.000000 0.000000
-10.000000 -0.000000 0.000000
-10.000000 -0.000000 0.000000
-10.000000 0.000000 0.000000
-10.000000 -0.000000 0.000000
-10.000000 0.000000 0.000000
-10.000000 0.000000 0.000000
-10.000000 -0.000000 0.000000
-10.000000 -0.000000 0.000000
-10.000000 -0.000000 0.000000
-10.000000 0.000000 0.000000
-10.000000 -0.000000 0.000000
-10.000000 -0.000000 0.000000
-10.000000 0.000000 0.000000