# vtk DataFile Version 4.0
hesp visualization file
ASCII
DATASET UNSTRUCTURED_GRID
POINTS 1250 double
30.281572 1.122528 4.000000
30.281571 2.244925 4.000000
30.281571 3.367386 4.000000
30.281571 4.489848 4.000000
30.281571 5.612310 4.000000
30.281571 6.734772 4.000000
30.281571 7.857234 4.000000
30.281571 8.979696 4.000000
30.281571 10.102158 4.000000
30.281571 11.224620 4.000000
30.281571 12.347083 4.000000
30.281571 13.469545 4.000000
30.281571 14.592007 4.000000
30.281571 15.714469 4.000000
30.281571 16.836931 4.000000
30.281571 17.959393 4.000000
30.281571 19.081855 4.000000
30.281571 20.204317 4.000000
30.281571 21.326779 4.000000
30.281571 22.449241 4.000000
30.281571 23.571703 4.000000
30.281571 24.694165 4.000000
30.281571 25.816627 4.000000
30.281571 26.939089 4.000000
30.281572 28.061485 4.000000
31.044921 1.122526 4.000000
31.044921 2.244925 4.000000
31.044921 3.367386 4.000000
31.044921 4.489848 4.000000
31.044921 5.612310 4.000000
31.044921 6.734772 4.000000
31.044921 7.857234 4.000000
31.044921 8.979696 4.000000
31.044921 10.102158 4.000000
31.044921 11.224620 4.000000
31.044921 12.347083 4.000000
31.044921 13.469545 4.000000
31.044921 14.592007 4.000000
31.044921 15.714469 4.000000
31.044921 16.836931 4.000000
31.044921 17.959393 4.000000
31.044921 19.081855 4.000000
31.044921 20.204317 4.000000
31.044921 21.326779 4.000000
31.044921 22.449241 4.000000
31.044921 23.571703 4.000000
31.044921 24.694165 4.000000
31.044921 25.816627 4.000000
31.044921 26.939089 4.000000
31.044921 28.061487 4.000000
32.167386 1.122526 4.000000
32.167386 2.244925 4.000000
32.167386 3.367386 4.000000
32.167386 4.489848 4.000000
32.167386 5.612310 4.000000
32.167386 6.734772 4.000000
32.167386 7.857234 4.000000
32.167386 8.979696 4.000000
32.167386 10.102158 4.000000
32.167386 11.224620 4.000000
32.167386 12.347083 4.000000
32.167386 13.469545 4.000000
32.167386 14.592007 4.000000
32.167386 15.714469 4.000000
32.167386 16.836931 4.000000
32.167386 17.959393 4.000000
32.167386 19.081855 4.000000
32.167386 20.204317 4.000000
32.167386 21.326779 4.000000
32.167386 22.449241 4.000000
32.167386 23.571703 4.000000
32.167386 24.694165 4.000000
32.167386 25.816627 4.000000
32.167386 26.939089 4.000000
32.167386 28.061488 4.000000
33.289848 1.122526 4.000000
33.289848 2.244925 4.000000
33.289848 3.367386 4.000000
33.289848 4.489848 4.000000
33.289848 5.612310 4.000000
33.289848 6.734772 4.000000
33.289848 7.857234 4.000000
33.289848 8.979696 4.000000
33.289848 10.102158 4.000000
33.289848 11.224620 4.000000
33.289848 12.347083 4.000000
33.289848 13.469545 4.000000
33.289848 14.592007 4.000000
33.289848 15.714469 4.000000
33.289848 16.836931 4.000000
33.289848 17.959393 4.000000
33.289848 19.081855 4.000000
33.289848 20.204317 4.000000
33.289848 21.326779 4.000000
33.289848 22.449241 4.000000
33.289848 23.571703 4.000000
33.289848 24.694165 4.000000
33.289848 25.816627 4.000000
33.289848 26.939089 4.000000
33.289848 28.061488 4.000000
34.412310 1.122526 4.000000
34.412310 2.244925 4.000000
34.412310 3.367386 4.000000
34.412310 4.489848 4.000000
34.412310 5.612310 4.000000
34.412310 6.734772 4.000000
34.412310 7.857234 4.000000
34.412310 8.979696 4.000000
34.412310 10.102158 4.000000
34.412310 11.224620 4.000000
34.412310 12.347083 4.000000
34.412310 13.469545 4.000000
34.412310 14.592007 4.000000
34.412310 15.714469 4.000000
34.412310 16.836931 4.000000
34.412310 17.959393 4.000000
34.412310 19.081855 4.000000
34.412310 20.204317 4.000000
34.412310 21.326779 4.000000
34.412310 22.449241 4.000000
34.412310 23.571703 4.000000
34.412310 24.694165 4.000000
34.412310 25.816627 4.000000
34.412310 26.939089 4.000000
34.412310 28.061488 4.000000
35.534772 1.122526 4.000000
35.534772 2.244925 4.000000
35.534772 3.367386 4.000000
35.534772 4.489848 4.000000
35.534772 5.612310 4.000000
35.534772 6.734772 4.000000
35.534772 7.857234 4.000000
35.534772 8.979696 4.000000
35.534772 10.102158 4.000000
35.534772 11.224620 4.000000
35.534772 12.347083 4.000000
35.534772 13.469545 4.000000
35.534772 14.592007 4.000000
35.534772 15.714469 4.000000
35.534772 16.836931 4.000000
35.534772 17.959393 4.000000
35.534772 19.081855 4.000000
35.534772 20.204317 4.000000
35.534772 21.326779 4.000000
35.534772 22.449241 4.000000
35.534772 23.571703 4.000000
35.534772 24.694165 4.000000
35.534772 25.816627 4.000000
35.534772 26.939089 4.000000
35.534772 28.061488 4.000000
36.657234 1.122526 4.000000
36.657234 2.244925 4.000000
36.657234 3.367386 4.000000
36.657234 4.489848 4.000000
36.657234 5.612310 4.000000
36.657234 6.734772 4.000000
36.657234 7.857234 4.000000
36.657234 8.979696 4.000000
36.657234 10.102158 4.000000
36.657234 11.224620 4.000000
36.657234 12.347083 4.000000
36.657234 13.469545 4.000000
36.657234 14.592007 4.000000
36.657234 15.714469 4.000000
36.657234 16.836931 4.000000
36.657234 17.959393 4.000000
36.657234 19.081855 4.000000
36.657234 20.204317 4.000000
36.657234 21.326779 4.000000
36.657234 22.449241 4.000000
36.657234 23.571703 4.000000
36.657234 24.694165 4.000000
36.657234 25.816627 4.000000
36.657234 26.939089 4.000000
36.657234 28.061488 4.000000
37.779696 1.122526 4.000000
37.779696 2.244925 4.000000
37.779696 3.367386 4.000000
37.779696 4.489848 4.000000
37.779696 5.612310 4.000000
37.779696 6.734772 4.000000
37.779696 7.857234 4.000000
37.779696 8.979696 4.000000
37.779696 10.102158 4.000000
37.779696 11.224620 4.000000
37.779696 12.347083 4.000000
37.779696 13.469545 4.000000
37.779696 14.592007 4.000000
37.779696 15.714469 4.000000
37.779696 16.836931 4.000000
37.779696 17.959393 4.000000
37.779696 19.081855 4.000000
37.779696 20.204317 4.000000
37.779696 21.326779 4.000000
37.779696 22.449241 4.000000
37.779696 23.571703 4.000000
37.779696 24.694165 4.000000
37.779696 25.816627 4.000000
37.779696 26.939089 4.000000
37.779696 28.061488 4.000000
38.902158 1.122526 4.000000
38.902158 2.244925 4.000000
38.902158 3.367386 4.000000
38.902158 4.489848 4.000000
38.902158 5.612310 4.000000
38.902158 6.734772 4.000000
38.902158 7.857234 4.000000
38.902158 8.979696 4.000000
38.902158 10.102158 4.000000
38.902158 11.224620 4.000000
38.902158 12.347083 4.000000
38.902158 13.469545 4.000000
38.902158 14.592007 4.000000
38.902158 15.714469 4.000000
38.902158 16.836931 4.000000
38.902158 17.959393 4.000000
38.902158 19.081855 4.000000
38.902158 20.204317 4.000000
38.902158 21.326779 4.000000
38.902158 22.449241 4.000000
38.902158 23.571703 4.000000
38.902158 24.694165 4.000000
38.902158 25.816627 4.000000
38.902158 26.939089 4.000000
38.902158 28.061488 4.000000
40.024620 1.122526 4.000000
40.024620 2.244925 4.000000
40.024620 3.367386 4.000000
40.024620 4.489848 4.000000
40.024620 5.612310 4.000000
40.024620 6.734772 4.000000
40.024620 7.857234 4.000000
40.024620 8.979696 4.000000
40.024620 10.102158 4.000000
40.024620 11.224620 4.000000
40.024620 12.347083 4.000000
40.024620 13.469545 4.000000
40.024620 14.592007 4.000000
40.024620 15.714469 4.000000
40.024620 16.836931 4.000000
40.024620 17.959393 4.000000
40.024620 19.081855 4.000000
40.024620 20.204317 4.000000
40.024620 21.326779 4.000000
40.024620 22.449241 4.000000
40.024620 23.571703 4.000000
40.024620 24.694165 4.000000
40.024620 25.816627 4.000000
40.024620 26.939089 4.000000
40.024620 28.061488 4.000000
41.147083 1.122526 4.000000
41.147083 2.244925 4.000000
41.147083 3.367386 4.000000
41.147083 4.489848 4.000000
41.147083 5.612310 4.000000
41.147083 6.734772 4.000000
41.147083 7.857234 4.000000
41.147083 8.979696 4.000000
41.147083 10.102158 4.000000
41.147083 11.224620 4.000000
41.147083 12.347083 4.000000
41.147083 13.469545 4.000000
41.147083 14.592007 4.000000
41.147083 15.714469 4.000000
41.147083 16.836931 4.000000
41.147083 17.959393 4.000000
41.147083 19.081855 4.000000
41.147083 20.204317 4.000000
41.147083 21.326779 4.000000
41.147083 22.449241 4.000000
41.147083 23.571703 4.000000
41.147083 24.694165 4.000000
41.147083 25.816627 4.000000
41.147083 26.939089 4.000000
41.147083 28.061488 4.000000
42.269545 1.122526 4.000000
42.269545 2.244925 4.000000
42.269545 3.367386 4.000000
42.269545 4.489848 4.000000
42.269545 5.612310 4.000000
42.269545 6.734772 4.000000
42.269545 7.857234 4.000000
42.269545 8.979696 4.000000
42.269545 10.102158 4.000000
42.269545 11.224620 4.000000
42.269545 12.347083 4.000000
42.269545 13.469545 4.000000
42.269545 14.592007 4.000000
42.269545 15.714469 4.000000
42.269545 16.836931 4.000000
42.269545 17.959393 4.000000
42.269545 19.081855 4.000000
42.269545 20.204317 4.000000
42.269545 21.326779 4.000000
42.269545 22.449241 4.000000
42.269545 23.571703 4.000000
42.269545 24.694165 4.000000
42.269545 25.816627 4.000000
42.269545 26.939089 4.000000
42.269545 28.061488 4.000000
43.392007 1.122526 4.000000
43.392007 2.244925 4.000000
43.392007 3.367386 4.000000
43.392007 4.489848 4.000000
43.392007 5.612310 4.000000
43.392007 6.734772 4.000000
43.392007 7.857234 4.000000
43.392007 8.979696 4.000000
43.392007 10.102158 4.000000
43.392007 11.224620 4.000000
43.392007 12.347083 4.000000
43.392007 13.469545 4.000000
43.392007 14.592007 4.000000
43.392007 15.714469 4.000000
43.392007 16.836931 4.000000
43.392007 17.959393 4.000000
43.392007 19.081855 4.000000
43.392007 20.204317 4.000000
43.392007 21.326779 4.000000
43.392007 22.449241 4.000000
43.392007 23.571703 4.000000
43.392007 24.694165 4.000000
43.392007 25.816627 4.000000
43.392007 26.939089 4.000000
43.392007 28.061488 4.000000
44.514469 1.122526 4.000000
44.514469 2.244925 4.000000
44.514469 3.367386 4.000000
44.514469 4.489848 4.000000
44.514469 5.612310 4.000000
44.514469 6.734772 4.000000
44.514469 7.857234 4.000000
44.514469 8.979696 4.000000
44.514469 10.102158 4.000000
44.514469 11.224620 4.000000
44.514469 12.347083 4.000000
44.514469 13.469545 4.000000
44.514469 14.592007 4.000000
44.514469 15.714469 4.000000
44.514469 16.836931 4.000000
44.514469 17.959393 4.000000
44.514469 19.081855 4.000000
44.514469 20.204317 4.000000
44.514469 21.326779 4.000000
44.514469 22.449241 4.000000
[...]
POINT_DATA 1250
SCALARS m double
LOOKUP_TABLE default
1.000000
1.000000
1.000000
1.000000
1.000000
1.000000
1.000000
1.000000
1.000000
1.000000
1.000000
1.000000
1.000000
1.000000
1.000000
1.000000
1.000000
1.000000
1.000000
1.000000
1.000000
1.000000
1.000000
1.000000
1.000000
1.000000
1.000000
1.000000
1.000000
1.000000
1.000000
1.000000
1.000000
1.000000
1.000000
1.000000
1.000000
1.000000
1.000000
1.000000
1.000000
1.000000
1.000000
1.000000
1.000000
1.000000
1.000000
1.000000
1.000000
1.000000
1.000000
1.000000
1.000000
1.000000
1.000000
1.000000
1.000000
1.000000
1.000000
1.000000
1.000000
1.000000
1.000000
1.000000
1.000000
1.000000
1.000000
1.000000
1.000000
1.000000
1.000000
1.000000
1.000000
1.000000
1.000000
1.000000
1.000000
1.000000
1.000000
1.000000
1.000000
1.000000
1.000000
1.000000
1.000000
1.000000
1.000000
1.000000
1.000000
1.000000
1.000000
1.000000
1.000000
1.000000
1.000000
1.000000
1.000000
1.000000
1.000000
1.000000
1.000000
1.000000
1.000000
1.000000
1.000000
1.000000
1.000000
1.000000
1.000000
1.000000
1.000000
1.000000
1.000000
1.000000
1.000000
1.000000
1.000000
1.000000
1.000000
1.000000
1.000000
1.000000
1.000000
1.000000
1.000000
1.000000
1.000000
1.000000
1.000000
1.000000
1.000000
1.000000
1.000000
1.000000
1.000000
1.000000
1.000000
1.000000
1.000000
1.000000
1.000000
1.000000
1.000000
1.000000
1.000000
1.000000
1.000000
1.000000
1.000000
1.000000
1.000000
1.000000
1.000000
1.000000
1.000000
1.000000
1.000000
1.000000
1.000000
1.000000
1.000000
1.000000
1.000000
1.000000
1.000000
1.000000
1.000000
1.000000
1.000000
1.000000
1.000000
1.000000
1.000000
1.000000
1.000000
1.000000
1.000000
1.000000
1.000000
1.000000
1.000000
1.000000
1.000000
1.000000
1.000000
1.000000
1.000000
1.000000
1.000000
1.000000
1.000000
1.000000
1.000000
1.000000
1.000000
1.000000
1.000000
1.000000
1.000000
1.000000
1.000000
1.000000
1.000000
1.000000
1.000000
1.000000
1.000000
1.000000
1.000000
1.000000
1.000000
1.000000
1.000000
1.000000
1.000000
1.000000
1.000000
1.000000
1.000000
1.000000
1.000000
1.000000
1.000000
1.000000
1.000000
1.000000
1.000000
1.000000
1.000000
1.000000
1.000000
1.000000
1.000000
1.000000
1.000000
1.000000
1.000000
1.000000
1.000000
1.000000
1.000000
1.000000
1.000000
1.000000
1.000000
1.000000
1.000000
1.000000
1.000000
1.000000
1.000000
1.000000
1.000000
1.000000
1.000000
1.000000
1.000000
1.000000
1.000000
1.000000
1.000000
1.000000
1.000000
1.000000
1.000000
1.000000
1.000000
1.000000
1.000000
1.000000
1.000000
1.000000
1.000000
1.000000
1.000000
1.000000
1.000000
1.000000
1.000000
1.000000
1.000000
1.000000
1.000000
1.000000
1.000000
1.000000
1.000000
1.000000
1.000000
1.000000
1.000000
1.000000
1.000000
1.000000
1.000000
1.000000
1.000000
1.000000
1.000000
1.000000
1.000000
1.000000
1.000000
1.000000
1.000000
1.000000
1.000000
1.000000
1.000000
1.000000
1.000000
1.000000
1.000000
1.000000
1.000000
1.000000
1.000000
1.000000
1.000000
1.000000
1.000000
1.000000
1.000000
1.000000
1.000000
1.000000
1.000000
1.000000
1.000000
1.000000
1.000000
1.000000
1.000000
1.000000
1.000000
1.000000
1.000000
1.000000
1.000000
1.000000
1.000000
1.000000
1.000000
1.000000
1.000000
1.000000
1.000000
1.000000
1.000000
1.000000
1.000000
1.000000
1.000000
1.000000
1.000000
1.000000
1.000000
1.000000
1.000000
1.000000
1.000000
1.000000
1.000000
1.000000
1.000000
1.000000
1.000000
1.000000
1.000000
1.000000
1.000000
1.000000
1.000000
1.000000
1.000000
1.000000
1.000000
1.000000
1.000000
1.000000
1.000000
1.000000
1.000000
1.000000
1.000000
1.000000
1.000000
1.000000
1.000000
1.000000
1.000000
1.000000
1.000000
1.000000
1.000000
1.000000
1.000000
1.000000
1.000000
1.000000
1.000000
1.000000
1.000000
1.000000
1.000000
1.000000
1.000000
1.000000
1.000000
1.000000
1.000000
1.000000
1.000000
1.000000
1.000000
1.000000
1.000000
1.000000
1.000000
1.000000
1.000000
1.000000
1.000000
1.000000
1.000000
1.000000
1.000000
1.000000
1.000000
1.000000
1.000000
1.000000
1.000000
1.000000
1.000000
1.000000
1.000000
1.000000
1.000000
1.000000
1.000000
1.000000
1.000000
1.000000
1.000000
1.000000
1.000000
1.000000
1.000000
1.000000
1.000000
1.000000
1.000000
1.000000
1.000000
1.000000
1.000000
1.000000
1.000000
1.000000
1.000000
1.000000
1.000000
1.000000
1.000000
1.000000
1.000000
1.000000
1.000000
1.000000
1.000000
1.000000
1.000000
1.000000
1.000000
1.000000
1.000000
1.000000
1.000000
1.000000
1.000000
1.000000
1.000000
1.000000
1.000000
1.000000
1.000000
1.000000
1.000000
1.000000
1.000000
1.000000
1.000000
1.000000
1.000000
1.000000
1.000000
1.000000
1.000000
1.000000
1.000000
1.000000
1.000000
1.000000
1.000000
1.000000
1.000000
1.000000
1.000000
1.000000
1.000000
1.000000
1.000000
1.000000
1.000000
1.000000
1.000000
1.000000
1.000000
1.000000
1.000000
1.000000
1.000000
1.000000
1.000000
1.000000
1.000000
1.000000
1.000000
1.000000
1.000000
1.000000
1.000000
1.000000
1.000000
1.000000
1.000000
1.000000
1.000000
1.000000
1.000000
1.000000
1.000000
1.000000
1.000000
1.000000
1.000000
1.000000
1.000000
1.000000
1.000000
1.000000
1.000000
1.000000
1.000000
1.000000
1.000000
1.000000
1.000000
1.000000
1.000000
1.000000
1.000000
1.000000
1.000000
1.000000
1.000000
1.000000
1.000000
1.000000
1.000000
1.000000
1.000000
1.000000
1.000000
1.000000
1.000000
1.000000
1.000000
1.000000
1.000000
1.000000
1.000000
1.000000
1.000000
1.000000
1.000000
1.000000
1.000000
1.000000
1.000000
1.000000
1.000000
1.000000
1.000000
1.000000
1.000000
1.000000
1.000000
1.000000
1.000000
1.000000
1.000000
1.000000
1.000000
1.000000
1.000000
1.000000
1.000000
1.000000
1.000000
1.000000
1.000000
1.000000
1.000000
1.000000
1.000000
1.000000
1.000000
1.000000
1.000000
1.000000
1.000000
1.000000
1.000000
1.000000
1.000000
1.000000
1.000000
1.000000
1.000000
1.000000
1.000000
1.000000
1.000000
1.000000
1.000000
1.000000
1.000000
1.000000
1.000000
1.000000
1.000000
1.000000
1.000000
1.000000
1.000000
1.000000
1.000000
1.000000
1.000000
1.000000
1.000000
1.000000
1.000000
1.000000
1.000000
1.000000
1.000000
1.000000
1.000000
1.000000
1.000000
1.000000
1.000000
1.000000
1.000000
1.000000
1.000000
1.000000
1.000000
1.000000
1.000000
1.000000
1.000000
1.000000
1.000000
1.000000
1.000000
1.000000
1.000000
1.000000
1.000000
1.000000
1.000000
1.000000
1.000000
1.000000
1.000000
1.000000
1.000000
1.000000
1.000000
1.000000
1.000000
1.000000
1.000000
1.000000
1.000000
1.000000
1.000000
1.000000
1.000000
1.000000
1.000000
1.000000
1.000000
1.000000
1.000000
1.000000
1.000000
1.000000
1.000000
1.000000
1.000000
1.000000
1.000000
1.000000
1.000000
1.000000
1.000000
1.000000
1.000000
1.000000
1.000000
1.000000
1.000000
1.000000
1.000000
1.000000
1.000000
1.000000
1.000000
1.000000
1.000000
1.000000
1.000000
1.000000
1.000000
1.000000
1.000000
1.000000
1.000000
1.000000
1.000000
1.000000
1.000000
1.000000
1.000000
1.000000
1.000000
1.000000
1.000000
1.000000
1.000000
1.000000
1.000000
1.000000
1.000000
1.000000
1.000000
1.000000
1.000000
1.000000
1.000000
1.000000
1.000000
1.000000
1.000000
1.000000
1.000000
1.000000
1.000000
1.000000
1.000000
1.000000
1.000000
1.000000
1.000000
1.000000
1.000000
1.000000
1.000000
1.000000
1.000000
1.000000
1.000000
1.000000
1.000000
1.000000
1.000000
1.000000
1.000000
1.000000
1.000000
1.000000
1.000000
1.000000
1.000000
1.000000
1.000000
1.000000
1.000000
1.000000
1.000000
1.000000
1.000000
1.000000
1.000000
1.000000
1.000000
1.000000
1.000000
1.000000
1.000000
1.000000
1.000000
1.000000
1.000000
1.000000
1.000000
1.000000
1.000000
1.000000
1.000000
1.000000
1.000000
1.000000
1.000000
1.000000
1.000000
1.000000
1.000000
1.000000
1.000000
1.000000
1.000000
1.000000
1.000000
1.000000
1.000000
1.000000
1.000000
1.000000
1.000000
1.000000
1.000000
1.000000
1.000000
1.000000
1.000000
1.000000
1.000000
1.000000
1.000000
1.000000
1.000000
1.000000
1.000000
1.000000
1.000000
1.000000
1.000000
1.000000
1.000000
1.000000
1.000000
1.000000
1.000000
1.000000
1.000000
1.000000
1.000000
1.000000
1.000000
1.000000
1.000000
1.000000
1.000000
1.000000
1.000000
1.000000
1.000000
1.000000
1.000000
1.000000
1.000000
1.000000
1.000000
1.000000
1.000000
1.000000
1.000000
1.000000
1.000000
1.000000
1.000000
1.000000
1.000000
1.000000
1.000000
1.000000
1.000000
1.000000
1.000000
1.000000
1.000000
1.000000
1.000000
1.000000
1.000000
1.000000
1.000000
1.000000
1.000000
1.000000
1.000000
1.000000
1.000000
1.000000
1.000000
1.000000
1.000000
1.000000
1.000000
1.000000
1.000000
1.000000
1.000000
1.000000
1.000000
1.000000
1.000000
1.000000
1.000000
1.000000
1.000000
1.000000
1.000000
1.000000
1.000000
1.000000
1.000000
1.000000
1.000000
1.000000
1.000000
1.000000
1.000000
1.000000
1.000000
1.000000
1.000000
1.000000
1.000000
1.000000
1.000000
1.000000
1.000000
1.000000
1.000000
1.000000
1.000000
1.000000
1.000000
1.000000
1.000000
1.000000
1.000000
1.000000
1.000000
1.000000
1.000000
1.000000
1.000000
1.000000
1.000000
1.000000
1.000000
1.000000
1.000000
1.000000
1.000000
1.000000
1.000000
1.000000
1.000000
1.000000
1.000000
1.000000
1.000000
1.000000
1.000000
1.000000
1.000000
1.000000
1.000000
1.000000
1.000000
1.000000
1.000000
1.000000
1.000000
1.000000
1.000000
1.000000
1.000000
1.000000
1.000000
1.000000
1.000000
1.000000
1.000000
1.000000
1.000000
1.000000
1.000000
1.000000
1.000000
1.000000
1.000000
1.000000
1.000000
1.000000
1.000000
1.000000
1.000000
1.000000
1.000000
1.000000
1.000000
1.000000
1.000000
1.000000
1.000000
1.000000
1.000000
1.000000
1.000000
1.000000
1.000000
1.000000
1.000000
1.000000
1.000000
1.000000
1.000000
1.000000
1.000000
1.000000
1.000000
1.000000
1.000000
1.000000
1.000000
1.000000
1.000000
1.000000
1.000000
1.000000
1.000000
1.000000
1.000000
1.000000
1.000000
1.000000
1.000000
1.000000
1.000000
1.000000
1.000000
1.000000
1.000000
1.000000
1.000000
1.000000
1.000000
1.000000
1.000000
1.000000
1.000000
1.000000
1.000000
1.000000
1.000000
1.000000
1.000000
1.000000
1.000000
1.000000
1.000000
1.000000
1.000000
1.000000
1.000000
1.000000
1.000000
1.000000
1.000000
1.000000
1.000000
1.000000
1.000000
1.000000
1.000000
1.000000
1.000000
1.000000
1.000000
1.000000
1.000000
1.000000
1.000000
1.000000
1.000000
1.000000
1.000000
1.000000
1.000000
1.000000
1.000000
1.000000
1.000000
1.000000
1.000000
1.000000
1.000000
1.000000
1.000000
1.000000
1.000000
1.000000
1.000000
1.000000
1.000000
1.000000
1.000000
1.000000
1.000000
1.000000
1.000000
1.000000
1.000000
1.000000
1.000000
1.000000
1.000000
1.000000
1.000000
1.000000
1.000000
1.000000
1.000000
1.000000
1.000000
1.000000
1.000000
1.000000
1.000000
1.000000
1.000000
1.000000
1.000000
1.000000
1.000000
1.000000
1.000000
1.000000
1.000000
1.000000
1.000000
1.000000
1.000000
1.000000
1.000000
1.000000
1.000000
1.000000
1.000000
1.000000
1.000000
1.000000
1.000000
1.000000
1.000000
1.000000
1.000000
1.000000
1.000000
1.000000
1.000000
1.000000
1.000000
1.000000
1.000000
1.000000
1.000000
1.000000
1.000000
1.000000
1.000000
1.000000
1.000000
1.000000
1.000000
1.000000
1.000000
1.000000
1.000000
1.000000
1.000000
1.000000
1.000000
1.000000
1.000000
1.000000
1.000000
1.000000
1.000000
1.000000
1.000000
1.000000
1.000000
1.000000
1.000000
1.000000
1.000000
1.000000
1.000000
1.000000
1.000000
1.000000
1.000000
1.000000
1.000000
1.000000
1.000000
1.000000
1.000000
1.000000
1.000000
1.000000
1.000000
1.000000
1.000000
1.000000
1.000000
1.000000
1.000000
1.000000
VECTORS v double
10.003991 0.001249 0.000000
10.003992 0.000011 0.000000
10.003992 -0.000000 0.000000
10.003992 -0.000000 0.000000
10.003992 0.000000 0.000000
10.003992 -0.000000 0.000000
10.003992 -0.000000 0.000000
10.003992 -0.000000 0.000000
10.003992 0.000000 0.000000
10.003992 -0.000000 0.000000
10.003992 0.000000 0.000000
10.003992 0.000000 0.000000
10.003992 -0.000000 0.000000
10.003992 -0.000000 0.000000
10.003992 -0.000000 0.000000
10.003992 0.000000 0.000000
10.003992 -0.000000 0.000000
10.003992 -0.000000 0.000000
10.003992 0.000000 0.000000
10.003992 0.000000 0.000000
10.003992 -0.000000 0.000000
10.003992 0.000000 0.000000
10.003992 0.000000 0.000000
10.003992 -0.000011 0.000000
10.003991 -0.001249 0.000000
-10.000603 0.001076 0.000000
-10.000618 0.000008 0.000000
-10.000618 -0.000000 0.000000
-10.000618 -0.000000 0.000000
-10.000618 0.000000 0.000000
-10.000618 -0.000000 0.000000
-10.000618 -0.000000 0.000000
-10.000618 -0.000000 0.000000
-10.000618 0.000000 0.000000
-10.000618 -0.000000 0.000000
-10.000618 -0.000000 0.000000
-10.000618 0.000000 0.000000
-10.000618 -0.000000 0.000000
-10.000618 -0.000000 0.000000
-10.000618 -0.000000 0.000000
-10.000618 0.000000 0.000000
-10.000618 -0.000000 0.000000
-10.000618 -0.000000 0.000000
-10.000618 0.000000 0.000000
-10.000618 0.000000 0.000000
-10.000618 -0.000000 0.000000
-10.000618 0.000000 0.000000
-10.000618 0.000000 0.000000
-10.000618 -0.000008 0.000000
-10.000603 -0.001076 0.000000
-10.000002 0.001059 0.000000
-10.000003 0.000007 0.000000
-10.000003 -0.000000 0.000000
-10.000003 -0.000000 0.000000
-10.000003 0.000000 0.000000
-10.000003 -0.000000 0.000000
-10.000003 -0.000000 0.000000
-10.000003 -0.000000 0.000000
-10.000003 0.000000 0.000000
-10.000003 -0.000000 0.000000
-10.000003 -0.000000 0.000000
-10.000003 0.000000 0.000000
-10.000003 -0.000000 0.000000
-10.000003 -0.000000 0.000000
-10.000003 -0.000000 0.000000
-10.000003 0.000000 0.000000
-10.000003 -0.000000 0.000000
-10.000003 -0.000000 0.000000
-10.000003 0.000000 0.000000
-10.000003 0.000000 0.000000
-10.000003 -0.000000 0.000000
-10.000003 0.000000 0.000000
-10.000003 0.000000 0.000000
-10.000003 -0.000007 0.000000
-10.000002 -0.001059 0.000000
-10.000000 0.001059 0.000000
-10.000000 0.000007 0.000000
-10.000000 -0.000000 0.000000
-10.000000 -0.000000 0.000000
-10.000000 0.000000 0.000000
-10.000000 -0.000000 0.000000
-10.000000 -0.000000 0.000000
-10.000000 -0.000000 0.000000
-10.000000 0.000000 0.000000
-10.000000 -0.000000 0.000000
-10.000000 -0.000000 0.000000
-10.000000 0.000000 0.000000
-10.000000 -0.000000 0.000000
-10.000000 -0.000000 0.000000
-10.000000 -0.000000 0.000000
-10.000000 0.000000 0.000000
-10.000000 -0.000000 0.000000
-10.000000 -0.000000 0.000000
-10.000000 0.000000 0.000000
-10.000000 0.000000 0.000000
-10.000000 -0.000000 0.000000
-10.000000 0.000000 0.000000
-10.000000 0.000000 0.000000
-10.000000 -0.000007 0.000000
-10.000000 -0.001059 0.000000
-10.000000 0.001059 0.000000
-10.000000 0.000007 0.000000
-10.000000 -0.000000 0.000000
-10.000000 -0.000000 0.000000
-10.000000 0.000000 0.000000
-10.000000 -0.000000 0.000000
-10.000000 -0.000000 0.000000
-10.000000 -0.000000 0.000000
-10.000000 0.000000 0.000000
-10.000000 -0.000000 0.000000
-10.000000 0.000000 0.000000
-10.000000 0.000000 0.000000
-10.000000 -0.000000 0.000000
-10.000000 -0.000000 0.000000
-10.000000 -0.000000 0.000000
-10.000000 0.000000 0.000000
-10.000000 -0.000000 0.000000
-10.000000 -0.000000 0.000000
-10.000000 0.000000 0.000000
-10.000000 0.000000 0.000000
-10.000000 -0.000000 0.000000
-10.000000 0.000000 0.000000
-10.000000 0.000000 0.000000
-10.000000 -0.000007 0.000000
-10.000000 -0.001059 0.000000
-10.000000 0.001059 0.000000
-10.000000 0.000007 0.000000
-10.000000 -0.000000 0.000000
-10.000000 -0.000000 0.000000
-10.000000 0.000000 0.000000
-10.000000 -0.000000 0.000000
-10.000000 -0.000000 0.000000
-10.000000 -0.000000 0.000000
-10.000000 0.000000 0.000000
-10.000000 -0.000000 0.000000
-10.000000 -0.000000 0.000000
-10.000000 0.000000 0.000000
-10.000000 -0.000000 0.000000
-10.000000 -0.000000 0.000000
-10.000000 -0.000000 0.000000
-10.000000 0.000000 0.000000
-10.000000 -0.000000 0.000000
-10.000000 -0.000000 0.000000
-10.000000 0.000000 0.000000
-10.000000 0.000000 0.000000
-10.000000 -0.000000 0.000000
-10.000000 0.000000 0.000000
-10.000000 0.000000 0.000000
-10.000000 -0.000007 0.000000
-10.000000 -0.001059 0.000000
-10.000000 0.001059 0.000000
-10.000000 0.000007 0.000000
-10.000000 -0.000000 0.000000
-10.000000 -0.000000 0.000000
-10.000000 0.000000 0.000000
-10.000000 -0.000000 0.000000
-10.000000 -0.000000 0.000000
-10.000000 -0.000000 0.000000
-10.000000 0.000000 0.000000
-10.000000 -0.000000 0.000000
-10.000000 -0.000000 0.000000
-10.000000 0.000000 0.000000
-10.000000 -0.000000 0.000000
-10.000000 -0.000000 0.000000
-10.000000 -0.000000 0.000000
-10.000000 0.000000 0.000000
-10.000000 -0.000000 0.000000
-10.000000 -0.000000 0.000000
-10.000000 0.000000 0.000000
-10.000000 0.000000 0.000000
-10.000000 -0.000000 0.000000
-10.000000 0.000000 0.000000
-10.000000 0.000000 0.000000
-10.000000 -0.000007 0.000000
-10.000000 -0.001059 0.000000
-10.000000 0.001059 0.000000
-10.000000 0.000007 0.000000
-10.000000 -0.000000 0.000000
-10.000000 -0.000000 0.000000
-10.000000 0.000000 0.000000
-10.000000 -0.000000 0.000000
-10.000000 -0.000000 0.000000
-10.000000 -0.000000 0.000000
-10.000000 0.000000 0.000000
-10.000000 -0.000000 0.000000
-10.000000 -0.000000 0.000000
-10.000000 0.000000 0.000000
-10.000000 -0.000000 0.000000
-10.000000 -0.000000 0.000000
-10.000000 -0.000000 0.000000
-10.000000 0.000000 0.000000
-10.000000 -0.000000 0.000000
-10.000000 -0.000000 0.000000
-10.000000 0.000000 0.000000
-10.000000 0.000000 0.000000
-10.000000 -0.000000 0.000000
-10.000000 0.000000 0.000000
-10.000000 0.000000 0.000000
-10.000000 -0.000007 0.000000
-10.000000 -0.001059 0.000000
-10.000000 0.001059 0.000000
-10.000000 0.000007 0.000000
-10.000000 -0.000000 0.000000
-10.000000 -0.000000 0.000000
-10.000000 0.000000 0.000000
-10.000000 -0.000000 0.000000
-10.000000 -0.000000 0.000000
-10.000000 -0.000000 0.000000
-10.000000 0.000000 0.000000
-10.000000 -0.000000 0.000000
-10.000000 -0.000000 0.000000
-10.000000 0.000000 0.000000
-10.000000 -0.000000 0.000000
-10.000000 -0.000000 0.000000
-10.000000 -0.000000 0.000000
-10.000000 0.000000 0.000000
-10.000000 -0.000000 0.000000
-10.000000 -0.000000 0.000000
-10.000000 0.000000 0.000000
-10.000000 0.000000 0.000000
-10.000000 -0.000000 0.000000
-10.000000 0.000000 0.000000
-10.000000 0.000000 0.000000
-10.000000 -0.000007 0.000000
-10.000000 -0.001059 0.000000
-10.000000 0.001059 0.000000
-10.000000 0.000007 0.000000
-10.000000 -0.000000 0.000000
-10.000000 -0.000000 0.000000
-10.000000 0.000000 0.000000
-10.000000 -0.000000 0.000000
-10.000000 -0.000000 0.000000
-10.000000 -0.000000 0.000000
-10.000000 0.000000 0.000000
-10.000000 -0.000000 0.000000
-10.000000 -0.000000 0.000000
-10.000000 0.000000 0.000000
-10.000000 -0.000000 0.000000
-10.000000 -0.000000 0.000000
-10.000000 -0.000000 0.000000
-10.000000 0.000000 0.000000
-10.000000 -0.000000 0.000000
-10.000000 -0.000000 0.000000
-10.000000 0.000000 0.000000
-10.000000 0.000000 0.000000
-10.000000 -0.000000 0.000000
-10.000000 0.000000 0.000000
-10.000000 0.000000 0.000000
-10.000000 -0.000007 0.000000
-10.000000 -0.001059 0.000000
-10.000000 0.001059 0.000000
-10.000000 0.000007 0.000000
-10.000000 -0.000000 0.000000
-10.000000 -0.000000 0.000000
-10.000000 0.000000 0.000000
-10.000000 -0.000000 0.000000
-10.000000 -0.000000 0.000000
-10.000000 -0.000000 0.000000
-10.000000 0.000000 0.000000
-10.000000 -0.000000 0.000000
-10.000000 -0.000000 0.000000
-10.000000 0.000000 0.000000
-10.000000 -0.000000 0.000000
-10.000000 -0.000000 0.000000
-10.000000 -0.000000 0.000000
-10.000000 0.000000 0.000000
-10.000000 -0.000000 0.000000
-10.000000 -0.000000 0.000000
-10.000000 0.000000 0.000000
-10.000000 0.000000 0.000000
-10.000000 -0.000000 0.000000
-10.000000 0.000000 0.000000
-10.000000 0.000000 0.000000
-10.000000 -0.000007 0.000000
-10.000000 -0.001059 0.000000
-10.000000 0.001059 0.000000
-10.000000 0.000007 0.000000
-10.000000 -0.000000 0.000000
-10.000000 -0.000000 0.000000
-10.000000 0.000000 0.000000
-10.000000 -0.000000 0.000000
-10.000000 -0.000000 0.000000
-10.000000 -0.000000 0.000000
-10.000000 0.000000 0.000000
-10.000000 -0.000000 0.000000
-10.000000 0.000000 0.000000
-10.000000 0.000000 0.000000
-10.000000 -0.000000 0.000000
-10.000000 -0.000000 0.000000
-10.000000 -0.000000 0.000000
-10.000000 0.000000 0.000000
-10.000000 -0.000000 0.000000
-10.000000 -0.000000 0.000000
-10.000000 0.000000 0.000000