# vtk DataFile Version 4.0
hesp visualization file
ASCII
DATASET UNSTRUCTURED_GRID
POINTS 1250 double
33.907996 3.091739 4.000000
30.636923 0.784369 4.000000
35.420300 4.706043 4.000000
33.613177 6.711980 4.000000
31.884803 6.114276 4.000000
30.487231 9.702769 4.000000
31.627999 10.628759 4.000000
30.727495 9.824629 4.000000
30.137148 11.098486 4.000000
30.979085 11.234773 4.000000
30.141969 12.334180 4.000000
30.140740 13.469551 4.000000
30.140732 14.592006 4.000000
30.140738 15.714461 4.000000
30.141450 16.848234 4.000000
30.724780 17.915420 4.000000
31.203647 19.554014 4.000000
30.758476 18.602077 4.000000
31.036287 20.799498 4.000000
30.233947 19.942290 4.000000
33.396148 24.880199 4.000000
30.170870 26.984475 4.000000
33.744338 24.165114 4.000000
31.610560 28.852481 4.000000
32.511298 27.496394 4.000000
30.495726 -9.742248 4.000000
32.800470 2.151812 4.000000
31.782693 -2.037690 4.000000
30.594084 4.905448 4.000000
30.171314 6.104857 4.000000
30.195223 7.252431 4.000000
30.333413 7.759960 4.000000
31.964401 11.422729 4.000000
31.535775 12.257956 4.000000
31.652590 11.388439 4.000000
31.185252 12.366122 4.000000
31.185352 13.469533 4.000000
31.185345 14.592008 4.000000
31.185350 15.714479 4.000000
31.184866 16.820107 4.000000
31.873801 17.969054 4.000000
33.281881 18.695839 4.000000
31.233991 17.712412 4.000000
32.348952 18.264264 4.000000
30.724280 23.984193 4.000000
30.268466 24.539077 4.000000
31.971180 24.022644 4.000000
31.788399 31.217129 4.000000
32.701729 26.818390 4.000000
30.495726 38.926261 4.000000
31.851192 -1.568865 4.000000
32.654603 3.915730 4.000000
32.349171 4.012334 4.000000
32.188251 7.250018 4.000000
33.332593 5.468470 4.000000
30.738647 9.052332 4.000000
32.986308 10.707839 4.000000
30.966194 6.825007 4.000000
31.707032 9.369609 4.000000
32.792677 12.749905 4.000000
32.437766 12.945250 4.000000
31.468098 13.472515 4.000000
31.467360 14.592009 4.000000
31.468158 15.711085 4.000000
31.911240 16.466806 4.000000
32.255648 17.146690 4.000000
30.952410 19.140789 4.000000
32.544596 21.538327 4.000000
33.514609 17.569361 4.000000
30.486560 20.103648 4.000000
30.920169 24.255350 4.000000
34.487605 21.358219 4.000000
32.238327 22.524277 4.000000
33.780493 25.422121 4.000000
31.852756 30.748585 4.000000
31.520212 -2.498317 4.000000
31.880778 -5.321890 4.000000
31.519222 4.125274 4.000000
34.379796 3.345117 4.000000
32.529214 2.508922 4.000000
31.573061 5.214528 4.000000
32.086028 9.013038 4.000000
31.644831 9.901072 4.000000
34.424549 10.835267 4.000000
32.632254 11.169557 4.000000
33.984191 12.835784 4.000000
32.510250 13.462004 4.000000
32.510616 14.592003 4.000000
32.510594 15.719497 4.000000
33.432040 16.855958 4.000000
32.305772 17.984146 4.000000
34.172740 18.364660 4.000000
30.935915 18.074613 4.000000
32.122711 20.508055 4.000000
30.820793 21.118126 4.000000
35.495321 24.153644 4.000000
34.166973 26.236974 4.000000
30.693888 25.062447 4.000000
31.880781 34.505903 4.000000
31.520211 31.682359 4.000000
34.212534 2.148846 4.000000
31.223357 4.918279 4.000000
32.303569 -0.248801 4.000000
35.896843 7.475780 4.000000
30.496791 8.944765 4.000000
30.183567 8.956745 4.000000
33.450841 7.959149 4.000000
31.332821 8.442637 4.000000
31.852124 8.757906 4.000000
32.523031 11.924456 4.000000
32.054600 13.224963 4.000000
33.631718 13.470911 4.000000
33.077036 15.286232 4.000000
33.190192 16.039030 4.000000
32.275984 16.266234 4.000000
33.475295 16.144157 4.000000
31.565618 19.715727 4.000000
31.550747 20.497022 4.000000
32.649049 22.801600 4.000000
31.505037 21.097007 4.000000
30.658793 22.400683 4.000000
35.610277 23.898845 4.000000
32.303512 28.961330 4.000000
32.672075 24.454010 4.000000
32.329236 26.623801 4.000000
30.604255 -2.687274 4.000000
32.132731 -4.248889 4.000000
36.797369 7.413301 4.000000
30.898175 6.157307 4.000000
32.958909 7.010164 4.000000
31.542792 5.500095 4.000000
31.636487 7.763914 4.000000
32.343567 10.053697 4.000000
33.199879 10.218326 4.000000
34.900746 13.024749 4.000000
33.054555 13.876023 4.000000
34.732988 13.423571 4.000000
33.417946 14.804537 4.000000
33.291222 15.551797 4.000000
34.030650 13.888438 4.000000
34.267648 15.938401 4.000000
33.274189 19.101892 4.000000
33.126914 19.413276 4.000000
31.818013 21.050307 4.000000
30.266659 21.268135 4.000000
33.884056 20.521958 4.000000
30.177327 20.577097 4.000000
36.627885 24.315788 4.000000
32.132960 33.432966 4.000000
30.604252 31.871291 4.000000
30.807163 1.335183 4.000000
36.703402 3.750477 4.000000
31.611729 0.413408 4.000000
34.349245 4.568130 4.000000
31.035608 9.036596 4.000000
32.153059 8.324784 4.000000
34.048921 7.964296 4.000000
35.572861 9.125049 4.000000
32.389169 8.370691 4.000000
33.205287 11.297556 4.000000
33.209315 12.197279 4.000000
34.442515 13.917637 4.000000
34.230706 14.348868 4.000000
34.146977 15.534169 4.000000
33.618053 17.975512 4.000000
33.151121 17.943716 4.000000
32.513290 20.978633 4.000000
35.433626 19.608196 4.000000
33.519820 23.440730 4.000000
31.097154 21.205689 4.000000
31.641243 23.254194 4.000000
33.759042 21.882335 4.000000
31.158167 27.164007 4.000000
36.632872 25.993229 4.000000
31.278285 27.381745 4.000000
38.712658 -6.314346 4.000000
34.420372 1.796266 4.000000
36.787696 1.741049 4.000000
32.680123 7.366438 4.000000
34.493543 5.624310 4.000000
33.004598 6.240523 4.000000
35.634421 10.393233 4.000000
37.158721 9.721935 4.000000
33.695498 10.001819 4.000000
34.386142 11.225466 4.000000
34.426438 12.717924 4.000000
35.242282 13.341216 4.000000
35.314366 14.762674 4.000000
34.745644 15.768956 4.000000
36.680735 15.903545 4.000000
34.317131 17.658765 4.000000
34.587050 19.133363 4.000000
37.606235 19.605761 4.000000
35.972283 19.489465 4.000000
32.840888 21.981072 4.000000
35.546439 21.251016 4.000000
33.670072 22.770525 4.000000
36.154141 27.694537 4.000000
35.354592 23.806001 4.000000
38.712658 35.498360 4.000000
31.974320 2.387944 4.000000
31.311111 1.541454 4.000000
36.493892 0.417938 4.000000
36.775602 5.414264 4.000000
33.813795 7.886982 4.000000
35.048943 6.986671 4.000000
33.551265 8.313521 4.000000
36.822929 10.239345 4.000000
34.679260 10.631671 4.000000
34.930336 11.302853 4.000000
36.014899 11.663030 4.000000
35.449488 13.466185 4.000000
35.483759 14.566376 4.000000
35.449113 15.719370 4.000000
34.595665 17.028294 4.000000
34.913065 17.958004 4.000000
34.584591 18.193538 4.000000
36.261847 18.969061 4.000000
33.642485 20.916437 4.000000
33.989689 21.242919 4.000000
33.669321 21.304260 4.000000
36.756324 25.314153 4.000000
37.279950 28.840790 4.000000
31.496358 27.843845 4.000000
33.090982 28.010903 4.000000
32.348016 0.781144 4.000000
33.886314 -3.214710 4.000000
35.715587 2.175226 4.000000
35.653909 4.467843 4.000000
34.944353 7.601320 4.000000
35.787214 6.535960 4.000000
37.291655 8.134108 4.000000
34.771536 10.232206 4.000000
35.764141 11.608266 4.000000
36.437267 11.938629 4.000000
35.971370 12.720352 4.000000
36.485895 13.472040 4.000000
36.487525 14.592001 4.000000
36.448841 15.653330 4.000000
35.653834 16.838036 4.000000
36.572540 16.707366 4.000000
35.843412 17.762458 4.000000
34.301866 19.545907 4.000000
35.786645 20.281951 4.000000
36.373932 22.914139 4.000000
36.241745 22.470785 4.000000
35.923430 24.972888 4.000000
35.684680 26.954760 4.000000
33.886315 32.398720 4.000000
32.318068 28.324089 4.000000
30.702142 -0.168804 4.000000
36.144474 1.210310 4.000000
36.169480 3.093475 4.000000
34.760592 2.969976 4.000000
38.039705 5.326595 4.000000
36.190755 7.569252 4.000000
35.499223 8.198707 4.000000
35.517035 11.251001 4.000000
36.288422 10.121985 4.000000
38.071110 12.721052 4.000000
36.770500 12.345024 4.000000
36.775670 13.469550 4.000000
36.775673 14.592007 4.000000
36.801412 15.684044 4.000000
36.848022 16.849228 4.000000
37.919698 16.679910 4.000000
35.858912 19.074674 4.000000
35.403565 18.134673 4.000000
35.521085 20.318373 4.000000
37.157272 21.163384 4.000000
39.303112 23.878155 4.000000
33.781602 26.794213 4.000000
36.210504 23.661136 4.000000
35.273988 26.479143 4.000000
30.681234 29.450409 4.000000
32.011628 -0.819017 4.000000
34.682649 -0.229303 4.000000
38.401747 8.538250 4.000000
34.310775 3.683787 4.000000
37.593236 6.633804 4.000000
39.449750 6.907521 4.000000
36.899640 7.862560 4.000000
36.056640 8.989306 4.000000
36.997618 10.073259 4.000000
36.979610 11.225093 4.000000
37.629093 12.500510 4.000000
37.814302 13.469531 4.000000
37.814303 14.592007 4.000000
37.814286 15.714484 4.000000
37.634707 16.675554 4.000000
36.979571 17.958717 4.000000
36.980051 19.094258 4.000000
36.535038 19.712059 4.000000
37.875263 21.366396 4.000000
37.663846 23.658198 4.000000
36.268620 24.383397 4.000000
34.187496 25.583184 4.000000
37.762341 20.672431 4.000000
34.688538 29.433478 4.000000
32.011700 30.003284 4.000000
32.592012 1.147112 4.000000
33.884293 0.149888 4.000000
39.106120 2.900799 4.000000
39.387629 5.466770 4.000000
38.396024 6.273575 4.000000
36.646298 6.139832 4.000000
39.205756 8.969364 4.000000
37.184250 8.979617 4.000000
38.103286 10.129331 4.000000
38.102752 11.224633 4.000000
38.335303 12.224113 4.000000
38.102442 13.469539 4.000000
38.102443 14.592007 4.000000
38.102442 15.714472 4.000000
38.434670 16.864066 4.000000
38.102752 17.959395 4.000000
38.103306 19.054111 4.000000
37.183988 20.203569 4.000000
39.182939 20.215993 4.000000
36.581175 23.080340 4.000000
37.820692 21.803087 4.000000
37.312813 23.486315 4.000000
38.976114 26.135413 4.000000
33.919237 29.066844 4.000000
32.591775 28.032130 4.000000
33.275133 -0.345768 4.000000
36.943913 2.079089 4.000000
35.658369 1.552088 4.000000
36.115262 4.673552 4.000000
36.746196 4.108518 4.000000
39.200351 6.276175 4.000000
37.425533 7.836224 4.000000
38.307091 8.971186 4.000000
39.140438 10.083930 4.000000
39.141657 11.224618 4.000000
39.141695 12.347089 4.000000
39.141723 13.469544 4.000000
39.141724 14.592007 4.000000
39.141723 15.714469 4.000000
39.141698 16.836926 4.000000
39.141661 17.959385 4.000000
39.140421 19.100473 4.000000
38.295905 20.179865 4.000000
37.624868 21.176460 4.000000
[...]
POINT_DATA 1250
SCALARS m double
LOOKUP_TABLE default
1.000000
1.000000
1.000000
1.000000
1.000000
1.000000
1.000000
1.000000
1.000000
1.000000
1.000000
1.000000
1.000000
1.000000
1.000000
1.000000
1.000000
1.000000
1.000000
1.000000
1.000000
1.000000
1.000000
1.000000
1.000000
1.000000
1.000000
1.000000
1.000000
1.000000
1.000000
1.000000
1.000000
1.000000
1.000000
1.000000
1.000000
1.000000
1.000000
1.000000
1.000000
1.000000
1.000000
1.000000
1.000000
1.000000
1.000000
1.000000
1.000000
1.000000
1.000000
1.000000
1.000000
1.000000
1.000000
1.000000
1.000000
1.000000
1.000000
1.000000
1.000000
1.000000
1.000000
1.000000
1.000000
1.000000
1.000000
1.000000
1.000000
1.000000
1.000000
1.000000
1.000000
1.000000
1.000000
1.000000
1.000000
1.000000
1.000000
1.000000
1.000000
1.000000
1.000000
1.000000
1.000000
1.000000
1.000000
1.000000
1.000000
1.000000
1.000000
1.000000
1.000000
1.000000
1.000000
1.000000
1.000000
1.000000
1.000000
1.000000
1.000000
1.000000
1.000000
1.000000
1.000000
1.000000
1.000000
1.000000
1.000000
1.000000
1.000000
1.000000
1.000000
1.000000
1.000000
1.000000
1.000000
1.000000
1.000000
1.000000
1.000000
1.000000
1.000000
1.000000
1.000000
1.000000
1.000000
1.000000
1.000000
1.000000
1.000000
1.000000
1.000000
1.000000
1.000000
1.000000
1.000000
1.000000
1.000000
1.000000
1.000000
1.000000
1.000000
1.000000
1.000000
1.000000
1.000000
1.000000
1.000000
1.000000
1.000000
1.000000
1.000000
1.000000
1.000000
1.000000
1.000000
1.000000
1.000000
1.000000
1.000000
1.000000
1.000000
1.000000
1.000000
1.000000
1.000000
1.000000
1.000000
1.000000
1.000000
1.000000
1.000000
1.000000
1.000000
1.000000
1.000000
1.000000
1.000000
1.000000
1.000000
1.000000
1.000000
1.000000
1.000000
1.000000
1.000000
1.000000
1.000000
1.000000
1.000000
1.000000
1.000000
1.000000
1.000000
1.000000
1.000000
1.000000
1.000000
1.000000
1.000000
1.000000
1.000000
1.000000
1.000000
1.000000
1.000000
1.000000
1.000000
1.000000
1.000000
1.000000
1.000000
1.000000
1.000000
1.000000
1.000000
1.000000
1.000000
1.000000
1.000000
1.000000
1.000000
1.000000
1.000000
1.000000
1.000000
1.000000
1.000000
1.000000
1.000000
1.000000
1.000000
1.000000
1.000000
1.000000
1.000000
1.000000
1.000000
1.000000
1.000000
1.000000
1.000000
1.000000
1.000000
1.000000
1.000000
1.000000
1.000000
1.000000
1.000000
1.000000
1.000000
1.000000
1.000000
1.000000
1.000000
1.000000
1.000000
1.000000
1.000000
1.000000
1.000000
1.000000
1.000000
1.000000
1.000000
1.000000
1.000000
1.000000
1.000000
1.000000
1.000000
1.000000
1.000000
1.000000
1.000000
1.000000
1.000000
1.000000
1.000000
1.000000
1.000000
1.000000
1.000000
1.000000
1.000000
1.000000
1.000000
1.000000
1.000000
1.000000
1.000000
1.000000
1.000000
1.000000
1.000000
1.000000
1.000000
1.000000
1.000000
1.000000
1.000000
1.000000
1.000000
1.000000
1.000000
1.000000
1.000000
1.000000
1.000000
1.000000
1.000000
1.000000
1.000000
1.000000
1.000000
1.000000
1.000000
1.000000
1.000000
1.000000
1.000000
1.000000
1.000000
1.000000
1.000000
1.000000
1.000000
1.000000
1.000000
1.000000
1.000000
1.000000
1.000000
1.000000
1.000000
1.000000
1.000000
1.000000
1.000000
1.000000
1.000000
1.000000
1.000000
1.000000
1.000000
1.000000
1.000000
1.000000
1.000000
1.000000
1.000000
1.000000
1.000000
1.000000
1.000000
1.000000
1.000000
1.000000
1.000000
1.000000
1.000000
1.000000
1.000000
1.000000
1.000000
1.000000
1.000000
1.000000
1.000000
1.000000
1.000000
1.000000
1.000000
1.000000
1.000000
1.000000
1.000000
1.000000
1.000000
1.000000
1.000000
1.000000
1.000000
1.000000
1.000000
1.000000
1.000000
1.000000
1.000000
1.000000
1.000000
1.000000
1.000000
1.000000
1.000000
1.000000
1.000000
1.000000
1.000000
1.000000
1.000000
1.000000
1.000000
1.000000
1.000000
1.000000
1.000000
1.000000
1.000000
1.000000
1.000000
1.000000
1.000000
1.000000
1.000000
1.000000
1.000000
1.000000
1.000000
1.000000
1.000000
1.000000
1.000000
1.000000
1.000000
1.000000
1.000000
1.000000
1.000000
1.000000
1.000000
1.000000
1.000000
1.000000
1.000000
1.000000
1.000000
1.000000
1.000000
1.000000
1.000000
1.000000
1.000000
1.000000
1.000000
1.000000
1.000000
1.000000
1.000000
1.000000
1.000000
1.000000
1.000000
1.000000
1.000000
1.000000
1.000000
1.000000
1.000000
1.000000
1.000000
1.000000
1.000000
1.000000
1.000000
1.000000
1.000000
1.000000
1.000000
1.000000
1.000000
1.000000
1.000000
1.000000
1.000000
1.000000
1.000000
1.000000
1.000000
1.000000
1.000000
1.000000
1.000000
1.000000
1.000000
1.000000
1.000000
1.000000
1.000000
1.000000
1.000000
1.000000
1.000000
1.000000
1.000000
1.000000
1.000000
1.000000
1.000000
1.000000
1.000000
1.000000
1.000000
1.000000
1.000000
1.000000
1.000000
1.000000
1.000000
1.000000
1.000000
1.000000
1.000000
1.000000
1.000000
1.000000
1.000000
1.000000
1.000000
1.000000
1.000000
1.000000
1.000000
1.000000
1.000000
1.000000
1.000000
1.000000
1.000000
1.000000
1.000000
1.000000
1.000000
1.000000
1.000000
1.000000
1.000000
1.000000
1.000000
1.000000
1.000000
1.000000
1.000000
1.000000
1.000000
1.000000
1.000000
1.000000
1.000000
1.000000
1.000000
1.000000
1.000000
1.000000
1.000000
1.000000
1.000000
1.000000
1.000000
1.000000
1.000000
1.000000
1.000000
1.000000
1.000000
1.000000
1.000000
1.000000
1.000000
1.000000
1.000000
1.000000
1.000000
1.000000
1.000000
1.000000
1.000000
1.000000
1.000000
1.000000
1.000000
1.000000
1.000000
1.000000
1.000000
1.000000
1.000000
1.000000
1.000000
1.000000
1.000000
1.000000
1.000000
1.000000
1.000000
1.000000
1.000000
1.000000
1.000000
1.000000
1.000000
1.000000
1.000000
1.000000
1.000000
1.000000
1.000000
1.000000
1.000000
1.000000
1.000000
1.000000
1.000000
1.000000
1.000000
1.000000
1.000000
1.000000
1.000000
1.000000
1.000000
1.000000
1.000000
1.000000
1.000000
1.000000
1.000000
1.000000
1.000000
1.000000
1.000000
1.000000
1.000000
1.000000
1.000000
1.000000
1.000000
1.000000
1.000000
1.000000
1.000000
1.000000
1.000000
1.000000
1.000000
1.000000
1.000000
1.000000
1.000000
1.000000
1.000000
1.000000
1.000000
1.000000
1.000000
1.000000
1.000000
1.000000
1.000000
1.000000
1.000000
1.000000
1.000000
1.000000
1.000000
1.000000
1.000000
1.000000
1.000000
1.000000
1.000000
1.000000
1.000000
1.000000
1.000000
1.000000
1.000000
1.000000
1.000000
1.000000
1.000000
1.000000
1.000000
1.000000
1.000000
1.000000
1.000000
1.000000
1.000000
1.000000
1.000000
1.000000
1.000000
1.000000
1.000000
1.000000
1.000000
1.000000
1.000000
1.000000
1.000000
1.000000
1.000000
1.000000
1.000000
1.000000
1.000000
1.000000
1.000000
1.000000
1.000000
1.000000
1.000000
1.000000
1.000000
1.000000
1.000000
1.000000
1.000000
1.000000
1.000000
1.000000
1.000000
1.000000
1.000000
1.000000
1.000000
1.000000
1.000000
1.000000
1.000000
1.000000
1.000000
1.000000
1.000000
1.000000
1.000000
1.000000
1.000000
1.000000
1.000000
1.000000
1.000000
1.000000
1.000000
1.000000
1.000000
1.000000
1.000000
1.000000
1.000000
1.000000
1.000000
1.000000
1.000000
1.000000
1.000000
1.000000
1.000000
1.000000
1.000000
1.000000
1.000000
1.000000
1.000000
1.000000
1.000000
1.000000
1.000000
1.000000
1.000000
1.000000
1.000000
1.000000
1.000000
1.000000
1.000000
1.000000
1.000000
1.000000
1.000000
1.000000
1.000000
1.000000
1.000000
1.000000
1.000000
1.000000
1.000000
1.000000
1.000000
1.000000
1.000000
1.000000
1.000000
1.000000
1.000000
1.000000
1.000000
1.000000
1.000000
1.000000
1.000000
1.000000
1.000000
1.000000
1.000000
1.000000
1.000000
1.000000
1.000000
1.000000
1.000000
1.000000
1.000000
1.000000
1.000000
1.000000
1.000000
1.000000
1.000000
1.000000
1.000000
1.000000
1.000000
1.000000
1.000000
1.000000
1.000000
1.000000
1.000000
1.000000
1.000000
1.000000
1.000000
1.000000
1.000000
1.000000
1.000000
1.000000
1.000000
1.000000
1.000000
1.000000
1.000000
1.000000
1.000000
1.000000
1.000000
1.000000
1.000000
1.000000
1.000000
1.000000
1.000000
1.000000
1.000000
1.000000
1.000000
1.000000
1.000000
1.000000
1.000000
1.000000
1.000000
1.000000
1.000000
1.000000
1.000000
1.000000
1.000000
1.000000
1.000000
1.000000
1.000000
1.000000
1.000000
1.000000
1.000000
1.000000
1.000000
1.000000
1.000000
1.000000
1.000000
1.000000
1.000000
1.000000
1.000000
1.000000
1.000000
1.000000
1.000000
1.000000
1.000000
1.000000
1.000000
1.000000
1.000000
1.000000
1.000000
1.000000
1.000000
1.000000
1.000000
1.000000
1.000000
1.000000
1.000000
1.000000
1.000000
1.000000
1.000000
1.000000
1.000000
1.000000
1.000000
1.000000
1.000000
1.000000
1.000000
1.000000
1.000000
1.000000
1.000000
1.000000
1.000000
1.000000
1.000000
1.000000
1.000000
1.000000
1.000000
1.000000
1.000000
1.000000
1.000000
1.000000
1.000000
1.000000
1.000000
1.000000
1.000000
1.000000
1.000000
1.000000
1.000000
1.000000
1.000000
1.000000
1.000000
1.000000
1.000000
1.000000
1.000000
1.000000
1.000000
1.000000
1.000000
1.000000
1.000000
1.000000
1.000000
1.000000
1.000000
1.000000
1.000000
1.000000
1.000000
1.000000
1.000000
1.000000
1.000000
1.000000
1.000000
1.000000
1.000000
1.000000
1.000000
1.000000
1.000000
1.000000
1.000000
1.000000
1.000000
1.000000
1.000000
1.000000
1.000000
1.000000
1.000000
1.000000
1.000000
1.000000
1.000000
1.000000
1.000000
1.000000
1.000000
1.000000
1.000000
1.000000
1.000000
1.000000
1.000000
1.000000
1.000000
1.000000
1.000000
1.000000
1.000000
1.000000
1.000000
1.000000
1.000000
1.000000
1.000000
1.000000
1.000000
1.000000
1.000000
1.000000
1.000000
1.000000
1.000000
1.000000
1.000000
1.000000
1.000000
1.000000
1.000000
1.000000
1.000000
1.000000
1.000000
1.000000
1.000000
1.000000
1.000000
1.000000
1.000000
1.000000
1.000000
1.000000
1.000000
1.000000
1.000000
1.000000
1.000000
1.000000
1.000000
1.000000
1.000000
1.000000
1.000000
1.000000
1.000000
1.000000
1.000000
1.000000
1.000000
1.000000
1.000000
1.000000
1.000000
1.000000
1.000000
1.000000
1.000000
1.000000
1.000000
1.000000
1.000000
1.000000
1.000000
1.000000
1.000000
1.000000
1.000000
1.000000
1.000000
1.000000
1.000000
1.000000
1.000000
1.000000
1.000000
1.000000
1.000000
1.000000
1.000000
1.000000
1.000000
1.000000
1.000000
1.000000
1.000000
1.000000
1.000000
1.000000
1.000000
1.000000
1.000000
1.000000
1.000000
1.000000
1.000000
1.000000
1.000000
1.000000
1.000000
1.000000
1.000000
1.000000
1.000000
1.000000
1.000000
1.000000
1.000000
1.000000
1.000000
1.000000
1.000000
1.000000
1.000000
1.000000
1.000000
1.000000
1.000000
1.000000
1.000000
1.000000
1.000000
1.000000
1.000000
1.000000
1.000000
1.000000
1.000000
1.000000
1.000000
1.000000
1.000000
1.000000
1.000000
1.000000
1.000000
1.000000
1.000000
1.000000
1.000000
1.000000
1.000000
1.000000
1.000000
1.000000
1.000000
1.000000
1.000000
1.000000
1.000000
1.000000
1.000000
1.000000
1.000000
1.000000
1.000000
1.000000
1.000000
1.000000
1.000000
1.000000
1.000000
1.000000
1.000000
1.000000
1.000000
1.000000
1.000000
1.000000
1.000000
1.000000
1.000000
1.000000
1.000000
1.000000
1.000000
1.000000
1.000000
1.000000
1.000000
1.000000
1.000000
1.000000
1.000000
1.000000
1.000000
1.000000
1.000000
1.000000
1.000000
1.000000
1.000000
1.000000
1.000000
1.000000
1.000000
1.000000
1.000000
1.000000
1.000000
1.000000
1.000000
1.000000
1.000000
1.000000
1.000000
1.000000
1.000000
1.000000
1.000000
1.000000
1.000000
1.000000
1.000000
1.000000
1.000000
1.000000
1.000000
1.000000
1.000000
1.000000
1.000000
1.000000
1.000000
1.000000
1.000000
1.000000
1.000000
1.000000
1.000000
1.000000
1.000000
1.000000
1.000000
1.000000
1.000000
1.000000
VECTORS v double
3.857311 -7.149545 0.000000
-2.519575 -4.459004 0.000000
-7.692678 -3.170448 0.000000
2.811149 14.855408 0.000000
-3.954852 -4.711173 0.000000
1.530675 4.137144 0.000000
5.496324 6.949165 0.000000
-1.745276 4.577606 0.000000
-5.553908 9.272129 0.000000
9.978193 0.054201 0.000000
-9.858523 -0.309273 0.000000
-9.843547 0.000174 0.000000
-9.843425 -0.000025 0.000000
-9.843528 -0.000196 0.000000
-9.853570 0.270989 0.000000
-2.364342 -2.822621 0.000000
-2.600595 -0.214597 0.000000
2.285589 -8.818727 0.000000
-7.115757 3.457094 0.000000
0.996376 -2.121655 0.000000
6.761996 5.458796 0.000000
7.281734 7.743736 0.000000
1.759954 -2.339319 0.000000
5.585459 7.280303 0.000000
-6.193252 10.592985 0.000000
2.631546 -13.726701 0.000000
1.690341 -10.732920 0.000000
5.475208 -9.708908 0.000000
-0.818703 -10.350755 0.000000
-0.318805 5.139599 0.000000
5.971196 0.664626 0.000000
5.815972 3.231336 0.000000
-1.025660 9.296173 0.000000
-2.262421 2.275238 0.000000
-9.733688 5.178186 0.000000
10.061409 0.362404 0.000000
9.859419 -0.001981 0.000000
9.849722 0.000022 0.000000
9.860092 0.002150 0.000000
9.999031 -0.334250 0.000000
-10.022359 -0.327010 0.000000
4.855343 -8.345213 0.000000
11.142199 -11.059809 0.000000
0.022067 -16.785577 0.000000
1.031957 -0.104485 0.000000
3.290765 11.713478 0.000000
0.080084 -2.440439 0.000000
5.487455 9.695387 0.000000
-8.334543 -3.653226 0.000000
2.631546 13.726701 0.000000
0.134716 -9.319398 0.000000
6.760806 -1.624668 0.000000
4.631090 -4.710558 0.000000
-10.112185 9.292023 0.000000
10.036456 -0.316915 0.000000
-6.812450 -2.377456 0.000000
7.170676 -2.477701 0.000000
-6.599877 -5.452338 0.000000
-0.700241 -8.421917 0.000000
3.213268 7.921722 0.000000
12.526850 7.907570 0.000000
-9.843058 0.069379 0.000000
-9.849942 0.000051 0.000000
-9.853064 -0.082311 0.000000
0.599730 -9.038079 0.000000
3.608293 4.897483 0.000000
-10.087424 0.549641 0.000000
4.179615 -4.045217 0.000000
5.702531 -5.434952 0.000000
6.349847 -13.724903 0.000000
3.722813 8.167298 0.000000
-7.016166 -11.211056 0.000000
-6.348555 -3.098236 0.000000
4.688251 1.436263 0.000000
0.139540 9.301230 0.000000
-0.497986 -3.651791 0.000000
6.835267 -10.618902 0.000000
-1.419924 9.352347 0.000000
6.140446 -2.016777 0.000000
-8.921192 3.787451 0.000000
12.075496 -10.669134 0.000000
-9.992802 0.618929 0.000000
4.965537 4.988788 0.000000
0.991198 -7.249069 0.000000
13.789711 -1.289809 0.000000
18.029574 6.928895 0.000000
9.952659 -0.242973 0.000000
10.001869 0.000137 0.000000
10.001222 0.103915 0.000000
10.026737 0.249221 0.000000
9.980272 0.441758 0.000000
-7.361555 1.643890 0.000000
-1.452826 -6.424564 0.000000
-10.878097 1.699840 0.000000
-14.582556 -4.193844 0.000000
14.939654 -3.687408 0.000000
4.137784 7.192207 0.000000
-5.958931 -9.269639 0.000000
6.835272 10.618902 0.000000
-0.498422 3.653656 0.000000
-5.031870 -0.413094 0.000000
-3.766713 5.302743 0.000000
9.957202 -10.612910 0.000000
-10.219333 2.171915 0.000000
-8.663436 7.446856 0.000000
5.895435 14.054436 0.000000
-8.460162 0.711825 0.000000
-8.030505 -2.037790 0.000000
2.907527 -5.295919 0.000000
-5.157075 -0.716124 0.000000
-7.973730 8.900765 0.000000
9.997476 0.017580 0.000000
-2.419990 15.114580 0.000000
-0.749903 7.899905 0.000000
-1.115352 -16.644223 0.000000
1.242677 -7.933870 0.000000
6.367214 2.991327 0.000000
-1.310624 -6.472653 0.000000
-3.221539 5.862498 0.000000
2.414350 6.535915 0.000000
-5.871573 0.062326 0.000000
-4.646725 -1.956573 0.000000
9.781977 6.178758 0.000000
8.238267 -4.227068 0.000000
-5.169050 7.622332 0.000000
-1.112519 -6.328091 0.000000
-1.996080 -10.926696 0.000000
3.305020 2.664157 0.000000
1.741583 -9.159494 0.000000
-6.552243 -0.371501 0.000000
-2.344968 -3.761859 0.000000
-8.023283 -2.990676 0.000000
-3.209859 6.177588 0.000000
-9.943336 1.534929 0.000000
0.797018 -3.583367 0.000000
-5.294126 -12.021641 0.000000
9.683117 -0.935382 0.000000
0.465193 -14.173363 0.000000
-4.606943 13.423720 0.000000
-15.220107 -10.815979 0.000000
5.032297 1.558530 0.000000
-4.355945 10.630630 0.000000
7.455708 -2.704244 0.000000
-4.705539 -1.490102 0.000000
9.409710 -4.503496 0.000000
-1.344966 -4.395023 0.000000
5.332472 -8.038617 0.000000
-0.959523 -0.643302 0.000000
-1.995641 10.926821 0.000000
-1.112538 6.328120 0.000000
-5.223853 -5.429004 0.000000
1.626206 3.541511 0.000000
4.108722 -6.756854 0.000000
4.355463 -2.364750 0.000000
1.554930 12.812189 0.000000
-8.931815 8.686249 0.000000
4.831415 6.208821 0.000000
15.431839 -0.065800 0.000000
-5.880818 -6.616900 0.000000
-9.969802 0.962368 0.000000
-9.990535 -0.964886 0.000000
6.972900 1.458116 0.000000
-6.994493 -4.504428 0.000000
-8.713099 -6.590466 0.000000
1.508486 13.215467 0.000000
-12.495516 1.857904 0.000000
-9.060563 10.058963 0.000000
14.711168 -2.083515 0.000000
-4.793167 9.009289 0.000000
8.038056 5.701334 0.000000
-4.365165 10.112371 0.000000
2.544147 -9.949581 0.000000
3.279650 -4.932474 0.000000
-6.044992 -4.019637 0.000000
-1.080421 6.909877 0.000000
4.837053 -9.997753 0.000000
-1.996164 -9.069749 0.000000
10.464301 -0.583191 0.000000
-4.913966 4.749559 0.000000
-8.706993 1.510690 0.000000
-2.456168 -4.760669 0.000000
-10.337478 10.542271 0.000000
10.656948 6.787205 0.000000
-16.531279 -2.562628 0.000000
-6.291415 6.590943 0.000000
-8.633792 1.837976 0.000000
12.436767 5.864863 0.000000
1.551951 12.868983 0.000000
7.349679 2.329313 0.000000
4.994603 9.888308 0.000000
-10.269474 -14.659316 0.000000
10.126296 1.210337 0.000000
14.369437 -4.672607 0.000000
3.833582 -6.534158 0.000000
-3.335989 -5.908798 0.000000
8.082057 -12.711332 0.000000
11.433531 1.210835 0.000000
1.735384 7.932339 0.000000
4.342244 -7.552006 0.000000
4.837053 9.997753 0.000000
-2.944274 -4.372574 0.000000
-9.885809 -1.608855 0.000000
-5.065103 -11.703361 0.000000
3.387483 10.159610 0.000000
-2.011360 -2.240221 0.000000
1.364351 -3.122675 0.000000
-7.928756 13.790444 0.000000
-6.441244 -1.502610 0.000000
-4.643636 2.886644 0.000000
8.966243 3.782738 0.000000
3.438978 -6.978780 0.000000
-8.364499 0.888634 0.000000
1.879620 -9.532268 0.000000
-9.992217 0.099402 0.000000
-9.332555 1.952187 0.000000
8.071540 -0.058942 0.000000
2.817803 -1.026657 0.000000
-4.331848 9.340266 0.000000
-9.432543 -7.528317 0.000000
-8.793148 -5.408838 0.000000
-7.532355 -1.091217 0.000000
-6.248249 13.426530 0.000000
0.369879 11.930500 0.000000
-4.612483 7.435659 0.000000
0.450742 8.130318 0.000000
1.523555 -1.166407 0.000000
-3.933270 -8.257648 0.000000
-7.157093 -6.623140 0.000000
-6.468962 -0.438744 0.000000
-12.762293 4.358058 0.000000
-1.880163 -7.292613 0.000000
-1.795539 8.180644 0.000000
9.878485 4.117214 0.000000
-10.472403 7.423343 0.000000
6.640371 6.580123 0.000000
-3.197190 8.046250 0.000000
9.907535 0.060604 0.000000
9.908764 -0.000084 0.000000
7.206894 -4.259408 0.000000
-9.977398 0.020074 0.000000
-7.444942 -13.048052 0.000000
-1.701014 -9.830974 0.000000
-11.859872 2.765615 0.000000
-10.183287 -1.994444 0.000000
-3.856975 11.879992 0.000000
-2.402383 3.878366 0.000000
-0.090091 1.075035 0.000000
-7.316581 7.021870 0.000000
-3.933268 8.257644 0.000000
1.390238 0.810670 0.000000
11.628206 -4.341253 0.000000
4.681810 -6.607650 0.000000
-2.172081 -10.622091 0.000000
-2.325968 -1.701112 0.000000
-4.968274 -1.548432 0.000000
9.726019 6.976234 0.000000
-5.984838 -5.557708 0.000000
-3.921280 12.997491 0.000000
5.468024 0.532143 0.000000
1.133039 20.663058 0.000000
-10.127972 -0.048614 0.000000
-9.924312 -0.000727 0.000000
-9.910195 0.000056 0.000000
0.474845 -13.491355 0.000000
0.735483 2.116670 0.000000
-8.891211 -11.618857 0.000000
-9.848928 -0.114625 0.000000
-4.400238 -11.105893 0.000000
-8.951314 -0.329518 0.000000
-10.091022 -4.082834 0.000000
1.599961 -6.850032 0.000000
-7.688187 6.474308 0.000000
-9.991152 -5.220964 0.000000
-3.719816 -6.504245 0.000000
11.546258 4.792474 0.000000
-7.983393 -7.181673 0.000000
-9.768257 -5.479469 0.000000
9.108836 5.023696 0.000000
-10.875044 -0.053655 0.000000
2.470590 3.561383 0.000000
13.866161 6.682825 0.000000
4.612165 10.339639 0.000000
-10.066499 0.174404 0.000000
-1.449385 -8.142637 0.000000
-10.004172 0.007309 0.000000
4.705733 4.298965 0.000000
9.909533 -0.000860 0.000000
9.909407 0.000017 0.000000
9.909182 0.000670 0.000000
4.015104 -5.152565 0.000000
-10.003973 -0.011319 0.000000
-9.997597 0.137887 0.000000
-1.211562 -9.253755 0.000000
5.159903 -10.479574 0.000000
-6.180200 4.125397 0.000000
-0.753296 7.642816 0.000000
-11.280984 0.301381 0.000000
7.120393 -9.541447 0.000000
-9.744553 5.557565 0.000000
-7.983664 7.194694 0.000000
-10.031960 0.063610 0.000000
-6.155091 -8.694984 0.000000
3.666949 1.015508 0.000000
9.313082 -0.523336 0.000000
5.591358 1.477723 0.000000
-6.978682 -8.127737 0.000000