# vtk DataFile Version 4.0
hesp visualization file
ASCII
DATASET UNSTRUCTURED_GRID
POINTS 1250 double
33.347119 2.369696 4.000000
31.297432 3.864159 4.000000
31.850402 3.799823 4.000000
31.266648 4.480952 4.000000
30.695555 6.391532 4.000000
30.351834 6.734390 4.000000
30.351897 7.857232 4.000000
30.351897 8.979696 4.000000
30.351897 10.102158 4.000000
30.351897 11.224620 4.000000
30.351897 12.347083 4.000000
30.351897 13.469545 4.000000
30.351897 14.592007 4.000000
30.351897 15.714469 4.000000
30.351897 16.836931 4.000000
30.351897 17.959393 4.000000
30.351897 19.081855 4.000000
30.351897 20.204317 4.000000
30.351897 21.326781 4.000000
30.351834 22.449623 4.000000
30.695497 22.792415 4.000000
31.266689 24.703209 4.000000
31.850901 25.380336 4.000000
31.292015 25.314710 4.000000
33.347074 26.814302 4.000000
30.896165 -3.839766 4.000000
32.803894 1.771010 4.000000
30.780815 2.169710 4.000000
30.215747 4.205032 4.000000
31.030630 6.492751 4.000000
31.442618 7.299511 4.000000
30.974456 7.857198 4.000000
30.974451 8.979696 4.000000
30.974451 10.102158 4.000000
30.974451 11.224620 4.000000
30.974451 12.347083 4.000000
30.974451 13.469545 4.000000
30.974451 14.592007 4.000000
30.974451 15.714469 4.000000
30.974451 16.836931 4.000000
30.974451 17.959393 4.000000
30.974451 19.081855 4.000000
30.974451 20.204317 4.000000
30.974456 21.326815 4.000000
31.442636 21.884535 4.000000
31.030616 22.691244 4.000000
30.214886 24.983112 4.000000
30.779792 27.013535 4.000000
32.803893 27.413005 4.000000
30.896165 33.023779 4.000000
30.354070 0.960593 4.000000
31.279888 2.852482 4.000000
31.224258 5.010994 4.000000
32.300584 5.396582 4.000000
31.178944 5.593440 4.000000
31.179176 6.731114 4.000000
31.678504 7.857204 4.000000
31.678513 8.979696 4.000000
31.678513 10.102158 4.000000
31.678513 11.224620 4.000000
31.678513 12.347083 4.000000
31.678513 13.469545 4.000000
31.678513 14.592007 4.000000
31.678513 15.714469 4.000000
31.678513 16.836931 4.000000
31.678513 17.959393 4.000000
31.678513 19.081855 4.000000
31.678513 20.204317 4.000000
31.678504 21.326809 4.000000
31.179186 22.452912 4.000000
31.178942 23.590541 4.000000
32.301466 23.788154 4.000000
31.224193 24.173107 4.000000
31.279800 26.331618 4.000000
30.354070 28.223420 4.000000
31.734339 -0.915408 4.000000
31.276523 -0.755514 4.000000
32.979322 3.892059 4.000000
31.521600 4.044977 4.000000
32.303135 5.652215 4.000000
32.300669 6.734878 4.000000
32.300660 7.857234 4.000000
32.300661 8.979696 4.000000
32.300661 10.102158 4.000000
32.300661 11.224620 4.000000
32.300661 12.347083 4.000000
32.300661 13.469545 4.000000
32.300661 14.592007 4.000000
32.300661 15.714469 4.000000
32.300661 16.836931 4.000000
32.300661 17.959393 4.000000
32.300661 19.081855 4.000000
32.300661 20.204317 4.000000
32.300660 21.326780 4.000000
32.300669 22.449135 4.000000
32.303066 23.532062 4.000000
31.527216 25.142750 4.000000
32.977727 25.277880 4.000000
31.276522 29.939527 4.000000
31.734339 30.099421 4.000000
34.539736 3.318024 4.000000
30.339275 2.976221 4.000000
31.802149 2.479235 4.000000
33.421413 5.437664 4.000000
33.031121 5.590610 4.000000
33.005397 6.734710 4.000000
33.005431 7.857235 4.000000
33.005431 8.979696 4.000000
33.005431 10.102158 4.000000
33.005431 11.224620 4.000000
33.005431 12.347083 4.000000
33.005431 13.469545 4.000000
33.005431 14.592007 4.000000
33.005431 15.714469 4.000000
33.005431 16.836931 4.000000
33.005431 17.959393 4.000000
33.005431 19.081855 4.000000
33.005431 20.204317 4.000000
33.005431 21.326779 4.000000
33.005397 22.449303 4.000000
33.031118 23.593382 4.000000
33.413568 23.744279 4.000000
31.802472 26.705051 4.000000
30.339270 26.207788 4.000000
34.539735 25.865984 4.000000
31.086298 0.033342 4.000000
32.990345 0.449704 4.000000
34.825276 4.143595 4.000000
33.327653 4.354430 4.000000
33.626742 5.612232 4.000000
33.626882 6.734767 4.000000
33.626882 7.857234 4.000000
33.626882 8.979696 4.000000
33.626882 10.102158 4.000000
33.626882 11.224620 4.000000
33.626882 12.347083 4.000000
33.626882 13.469545 4.000000
33.626882 14.592007 4.000000
33.626882 15.714469 4.000000
33.626882 16.836931 4.000000
33.626882 17.959393 4.000000
33.626882 19.081855 4.000000
33.626882 20.204317 4.000000
33.626882 21.326779 4.000000
33.626882 22.449247 4.000000
33.626670 23.571842 4.000000
33.320475 24.847751 4.000000
34.824818 25.040202 4.000000
32.990386 28.734319 4.000000
31.086297 29.150671 4.000000
31.942303 2.177807 4.000000
35.925985 2.499498 4.000000
32.951207 3.153217 4.000000
33.830742 4.473363 4.000000
34.332454 5.612197 4.000000
34.332574 6.734775 4.000000
34.332575 7.857234 4.000000
34.332575 8.979696 4.000000
34.332575 10.102158 4.000000
34.332575 11.224620 4.000000
34.332575 12.347083 4.000000
34.332575 13.469545 4.000000
34.332575 14.592007 4.000000
34.332575 15.714469 4.000000
34.332575 16.836931 4.000000
34.332575 17.959393 4.000000
34.332575 19.081855 4.000000
34.332575 20.204317 4.000000
34.332575 21.326779 4.000000
34.332574 22.449238 4.000000
34.332456 23.571814 4.000000
33.830805 24.714056 4.000000
32.951243 26.031031 4.000000
35.925892 26.684543 4.000000
31.942361 27.006460 4.000000
36.632725 -2.015313 4.000000
33.750301 4.157211 4.000000
35.417097 3.016541 4.000000
34.832830 4.811622 4.000000
34.953223 5.612369 4.000000
34.953211 6.734772 4.000000
34.953211 7.857234 4.000000
34.953211 8.979696 4.000000
34.953211 10.102158 4.000000
34.953211 11.224620 4.000000
34.953211 12.347083 4.000000
34.953211 13.469545 4.000000
34.953211 14.592007 4.000000
34.953211 15.714469 4.000000
34.953211 16.836931 4.000000
34.953211 17.959393 4.000000
34.953211 19.081855 4.000000
34.953211 20.204317 4.000000
34.953211 21.326779 4.000000
34.953211 22.449241 4.000000
34.953223 23.571646 4.000000
34.839789 24.365363 4.000000
35.416665 26.167251 4.000000
33.767454 25.024360 4.000000
36.632725 31.199326 4.000000
33.627698 2.965406 4.000000
35.551917 2.224830 4.000000
35.514567 4.164862 4.000000
36.008529 5.239208 4.000000
35.659832 5.612170 4.000000
35.659786 6.734772 4.000000
35.659786 7.857234 4.000000
35.659786 8.979696 4.000000
35.659786 10.102158 4.000000
35.659786 11.224620 4.000000
35.659786 12.347083 4.000000
35.659786 13.469545 4.000000
35.659786 14.592007 4.000000
35.659786 15.714469 4.000000
35.659786 16.836931 4.000000
35.659786 17.959393 4.000000
35.659786 19.081855 4.000000
35.659786 20.204317 4.000000
35.659786 21.326779 4.000000
35.659786 22.449241 4.000000
35.659832 23.571842 4.000000
36.008974 23.944722 4.000000
35.507590 25.024138 4.000000
35.551920 26.959155 4.000000
33.627698 26.218607 4.000000
33.524006 1.124936 4.000000
35.577614 0.336109 4.000000
35.361484 3.455718 4.000000
36.279687 4.496483 4.000000
36.279623 5.612243 4.000000
36.279666 6.734772 4.000000
36.279666 7.857234 4.000000
36.279666 8.979696 4.000000
36.279666 10.102158 4.000000
36.279666 11.224620 4.000000
36.279666 12.347083 4.000000
36.279666 13.469545 4.000000
36.279666 14.592007 4.000000
36.279666 15.714469 4.000000
36.279666 16.836931 4.000000
36.279666 17.959393 4.000000
36.279666 19.081855 4.000000
36.279666 20.204317 4.000000
36.279666 21.326779 4.000000
36.279666 22.449241 4.000000
36.279623 23.571771 4.000000
36.279713 24.685895 4.000000
35.361492 25.728186 4.000000
35.577614 28.847903 4.000000
33.524006 28.059078 4.000000
34.473113 1.001383 4.000000
37.426024 2.565304 4.000000
37.630339 3.488092 4.000000
36.984379 4.485788 4.000000
36.986864 5.612311 4.000000
36.986874 6.734772 4.000000
36.986874 7.857234 4.000000
36.986874 8.979696 4.000000
36.986874 10.102158 4.000000
36.986874 11.224620 4.000000
36.986874 12.347083 4.000000
36.986874 13.469545 4.000000
36.986874 14.592007 4.000000
36.986874 15.714469 4.000000
36.986874 16.836931 4.000000
36.986874 17.959393 4.000000
36.986874 19.081855 4.000000
36.986874 20.204317 4.000000
36.986874 21.326779 4.000000
36.986874 22.449241 4.000000
36.986864 23.571702 4.000000
36.984342 24.699357 4.000000
37.630350 25.695870 4.000000
37.426184 26.618804 4.000000
34.473112 28.182631 4.000000
35.768170 1.124489 4.000000
36.004863 2.202745 4.000000
37.310145 4.391291 4.000000
37.605659 4.488822 4.000000
37.606214 5.612310 4.000000
37.606214 6.734772 4.000000
37.606214 7.857234 4.000000
37.606214 8.979696 4.000000
37.606214 10.102158 4.000000
37.606214 11.224620 4.000000
37.606214 12.347083 4.000000
37.606214 13.469545 4.000000
37.606214 14.592007 4.000000
37.606214 15.714469 4.000000
37.606214 16.836931 4.000000
37.606214 17.959393 4.000000
37.606214 19.081855 4.000000
37.606214 20.204317 4.000000
37.606214 21.326779 4.000000
37.606214 22.449241 4.000000
37.606214 23.571703 4.000000
37.605659 24.695025 4.000000
37.310051 24.792787 4.000000
36.004903 26.981338 4.000000
35.768170 28.059524 4.000000
36.892003 1.125087 4.000000
36.892151 2.245676 4.000000
37.835009 3.345692 4.000000
38.313526 4.490222 4.000000
38.313665 5.612310 4.000000
38.313666 6.734772 4.000000
38.313666 7.857234 4.000000
38.313666 8.979696 4.000000
38.313666 10.102158 4.000000
38.313666 11.224620 4.000000
38.313666 12.347083 4.000000
38.313666 13.469545 4.000000
38.313666 14.592007 4.000000
38.313666 15.714469 4.000000
38.313666 16.836931 4.000000
38.313666 17.959393 4.000000
38.313666 19.081855 4.000000
38.313666 20.204317 4.000000
38.313666 21.326779 4.000000
38.313666 22.449241 4.000000
38.313665 23.571704 4.000000
38.313526 24.693899 4.000000
37.834924 25.838303 4.000000
36.892151 26.938337 4.000000
36.892003 28.058926 4.000000
38.014468 1.125085 4.000000
38.014442 2.244969 4.000000
38.933085 3.383715 4.000000
38.932800 4.489808 4.000000
38.932800 5.612310 4.000000
38.932800 6.734772 4.000000
38.932800 7.857234 4.000000
38.932800 8.979696 4.000000
38.932800 10.102158 4.000000
38.932800 11.224620 4.000000
38.932800 12.347083 4.000000
38.932800 13.469545 4.000000
38.932800 14.592007 4.000000
38.932800 15.714469 4.000000
38.932800 16.836931 4.000000
38.932800 17.959393 4.000000
38.932800 19.081855 4.000000
38.932800 20.204317 4.000000
38.932800 21.326779 4.000000
38.932800 22.449241 4.000000
[...]
POINT_DATA 1250
SCALARS m double
LOOKUP_TABLE default
1.000000
1.000000
1.000000
1.000000
1.000000
1.000000
1.000000
1.000000
1.000000
1.000000
1.000000
1.000000
1.000000
1.000000
1.000000
1.000000
1.000000
1.000000
1.000000
1.000000
1.000000
1.000000
1.000000
1.000000
1.000000
1.000000
1.000000
1.000000
1.000000
1.000000
1.000000
1.000000
1.000000
1.000000
1.000000
1.000000
1.000000
1.000000
1.000000
1.000000
1.000000
1.000000
1.000000
1.000000
1.000000
1.000000
1.000000
1.000000
1.000000
1.000000
1.000000
1.000000
1.000000
1.000000
1.000000
1.000000
1.000000
1.000000
1.000000
1.000000
1.000000
1.000000
1.000000
1.000000
1.000000
1.000000
1.000000
1.000000
1.000000
1.000000
1.000000
1.000000
1.000000
1.000000
1.000000
1.000000
1.000000
1.000000
1.000000
1.000000
1.000000
1.000000
1.000000
1.000000
1.000000
1.000000
1.000000
1.000000
1.000000
1.000000
1.000000
1.000000
1.000000
1.000000
1.000000
1.000000
1.000000
1.000000
1.000000
1.000000
1.000000
1.000000
1.000000
1.000000
1.000000
1.000000
1.000000
1.000000
1.000000
1.000000
1.000000
1.000000
1.000000
1.000000
1.000000
1.000000
1.000000
1.000000
1.000000
1.000000
1.000000
1.000000
1.000000
1.000000
1.000000
1.000000
1.000000
1.000000
1.000000
1.000000
1.000000
1.000000
1.000000
1.000000
1.000000
1.000000
1.000000
1.000000
1.000000
1.000000
1.000000
1.000000
1.000000
1.000000
1.000000
1.000000
1.000000
1.000000
1.000000
1.000000
1.000000
1.000000
1.000000
1.000000
1.000000
1.000000
1.000000
1.000000
1.000000
1.000000
1.000000
1.000000
1.000000
1.000000
1.000000
1.000000
1.000000
1.000000
1.000000
1.000000
1.000000
1.000000
1.000000
1.000000
1.000000
1.000000
1.000000
1.000000
1.000000
1.000000
1.000000
1.000000
1.000000
1.000000
1.000000
1.000000
1.000000
1.000000
1.000000
1.000000
1.000000
1.000000
1.000000
1.000000
1.000000
1.000000
1.000000
1.000000
1.000000
1.000000
1.000000
1.000000
1.000000
1.000000
1.000000
1.000000
1.000000
1.000000
1.000000
1.000000
1.000000
1.000000
1.000000
1.000000
1.000000
1.000000
1.000000
1.000000
1.000000
1.000000
1.000000
1.000000
1.000000
1.000000
1.000000
1.000000
1.000000
1.000000
1.000000
1.000000
1.000000
1.000000
1.000000
1.000000
1.000000
1.000000
1.000000
1.000000
1.000000
1.000000
1.000000
1.000000
1.000000
1.000000
1.000000
1.000000
1.000000
1.000000
1.000000
1.000000
1.000000
1.000000
1.000000
1.000000
1.000000
1.000000
1.000000
1.000000
1.000000
1.000000
1.000000
1.000000
1.000000
1.000000
1.000000
1.000000
1.000000
1.000000
1.000000
1.000000
1.000000
1.000000
1.000000
1.000000
1.000000
1.000000
1.000000
1.000000
1.000000
1.000000
1.000000
1.000000
1.000000
1.000000
1.000000
1.000000
1.000000
1.000000
1.000000
1.000000
1.000000
1.000000
1.000000
1.000000
1.000000
1.000000
1.000000
1.000000
1.000000
1.000000
1.000000
1.000000
1.000000
1.000000
1.000000
1.000000
1.000000
1.000000
1.000000
1.000000
1.000000
1.000000
1.000000
1.000000
1.000000
1.000000
1.000000
1.000000
1.000000
1.000000
1.000000
1.000000
1.000000
1.000000
1.000000
1.000000
1.000000
1.000000
1.000000
1.000000
1.000000
1.000000
1.000000
1.000000
1.000000
1.000000
1.000000
1.000000
1.000000
1.000000
1.000000
1.000000
1.000000
1.000000
1.000000
1.000000
1.000000
1.000000
1.000000
1.000000
1.000000
1.000000
1.000000
1.000000
1.000000
1.000000
1.000000
1.000000
1.000000
1.000000
1.000000
1.000000
1.000000
1.000000
1.000000
1.000000
1.000000
1.000000
1.000000
1.000000
1.000000
1.000000
1.000000
1.000000
1.000000
1.000000
1.000000
1.000000
1.000000
1.000000
1.000000
1.000000
1.000000
1.000000
1.000000
1.000000
1.000000
1.000000
1.000000
1.000000
1.000000
1.000000
1.000000
1.000000
1.000000
1.000000
1.000000
1.000000
1.000000
1.000000
1.000000
1.000000
1.000000
1.000000
1.000000
1.000000
1.000000
1.000000
1.000000
1.000000
1.000000
1.000000
1.000000
1.000000
1.000000
1.000000
1.000000
1.000000
1.000000
1.000000
1.000000
1.000000
1.000000
1.000000
1.000000
1.000000
1.000000
1.000000
1.000000
1.000000
1.000000
1.000000
1.000000
1.000000
1.000000
1.000000
1.000000
1.000000
1.000000
1.000000
1.000000
1.000000
1.000000
1.000000
1.000000
1.000000
1.000000
1.000000
1.000000
1.000000
1.000000
1.000000
1.000000
1.000000
1.000000
1.000000
1.000000
1.000000
1.000000
1.000000
1.000000
1.000000
1.000000
1.000000
1.000000
1.000000
1.000000
1.000000
1.000000
1.000000
1.000000
1.000000
1.000000
1.000000
1.000000
1.000000
1.000000
1.000000
1.000000
1.000000
1.000000
1.000000
1.000000
1.000000
1.000000
1.000000
1.000000
1.000000
1.000000
1.000000
1.000000
1.000000
1.000000
1.000000
1.000000
1.000000
1.000000
1.000000
1.000000
1.000000
1.000000
1.000000
1.000000
1.000000
1.000000
1.000000
1.000000
1.000000
1.000000
1.000000
1.000000
1.000000
1.000000
1.000000
1.000000
1.000000
1.000000
1.000000
1.000000
1.000000
1.000000
1.000000
1.000000
1.000000
1.000000
1.000000
1.000000
1.000000
1.000000
1.000000
1.000000
1.000000
1.000000
1.000000
1.000000
1.000000
1.000000
1.000000
1.000000
1.000000
1.000000
1.000000
1.000000
1.000000
1.000000
1.000000
1.000000
1.000000
1.000000
1.000000
1.000000
1.000000
1.000000
1.000000
1.000000
1.000000
1.000000
1.000000
1.000000
1.000000
1.000000
1.000000
1.000000
1.000000
1.000000
1.000000
1.000000
1.000000
1.000000
1.000000
1.000000
1.000000
1.000000
1.000000
1.000000
1.000000
1.000000
1.000000
1.000000
1.000000
1.000000
1.000000
1.000000
1.000000
1.000000
1.000000
1.000000
1.000000
1.000000
1.000000
1.000000
1.000000
1.000000
1.000000
1.000000
1.000000
1.000000
1.000000
1.000000
1.000000
1.000000
1.000000
1.000000
1.000000
1.000000
1.000000
1.000000
1.000000
1.000000
1.000000
1.000000
1.000000
1.000000
1.000000
1.000000
1.000000
1.000000
1.000000
1.000000
1.000000
1.000000
1.000000
1.000000
1.000000
1.000000
1.000000
1.000000
1.000000
1.000000
1.000000
1.000000
1.000000
1.000000
1.000000
1.000000
1.000000
1.000000
1.000000
1.000000
1.000000
1.000000
1.000000
1.000000
1.000000
1.000000
1.000000
1.000000
1.000000
1.000000
1.000000
1.000000
1.000000
1.000000
1.000000
1.000000
1.000000
1.000000
1.000000
1.000000
1.000000
1.000000
1.000000
1.000000
1.000000
1.000000
1.000000
1.000000
1.000000
1.000000
1.000000
1.000000
1.000000
1.000000
1.000000
1.000000
1.000000
1.000000
1.000000
1.000000
1.000000
1.000000
1.000000
1.000000
1.000000
1.000000
1.000000
1.000000
1.000000
1.000000
1.000000
1.000000
1.000000
1.000000
1.000000
1.000000
1.000000
1.000000
1.000000
1.000000
1.000000
1.000000
1.000000
1.000000
1.000000
1.000000
1.000000
1.000000
1.000000
1.000000
1.000000
1.000000
1.000000
1.000000
1.000000
1.000000
1.000000
1.000000
1.000000
1.000000
1.000000
1.000000
1.000000
1.000000
1.000000
1.000000
1.000000
1.000000
1.000000
1.000000
1.000000
1.000000
1.000000
1.000000
1.000000
1.000000
1.000000
1.000000
1.000000
1.000000
1.000000
1.000000
1.000000
1.000000
1.000000
1.000000
1.000000
1.000000
1.000000
1.000000
1.000000
1.000000
1.000000
1.000000
1.000000
1.000000
1.000000
1.000000
1.000000
1.000000
1.000000
1.000000
1.000000
1.000000
1.000000
1.000000
1.000000
1.000000
1.000000
1.000000
1.000000
1.000000
1.000000
1.000000
1.000000
1.000000
1.000000
1.000000
1.000000
1.000000
1.000000
1.000000
1.000000
1.000000
1.000000
1.000000
1.000000
1.000000
1.000000
1.000000
1.000000
1.000000
1.000000
1.000000
1.000000
1.000000
1.000000
1.000000
1.000000
1.000000
1.000000
1.000000
1.000000
1.000000
1.000000
1.000000
1.000000
1.000000
1.000000
1.000000
1.000000
1.000000
1.000000
1.000000
1.000000
1.000000
1.000000
1.000000
1.000000
1.000000
1.000000
1.000000
1.000000
1.000000
1.000000
1.000000
1.000000
1.000000
1.000000
1.000000
1.000000
1.000000
1.000000
1.000000
1.000000
1.000000
1.000000
1.000000
1.000000
1.000000
1.000000
1.000000
1.000000
1.000000
1.000000
1.000000
1.000000
1.000000
1.000000
1.000000
1.000000
1.000000
1.000000
1.000000
1.000000
1.000000
1.000000
1.000000
1.000000
1.000000
1.000000
1.000000
1.000000
1.000000
1.000000
1.000000
1.000000
1.000000
1.000000
1.000000
1.000000
1.000000
1.000000
1.000000
1.000000
1.000000
1.000000
1.000000
1.000000
1.000000
1.000000
1.000000
1.000000
1.000000
1.000000
1.000000
1.000000
1.000000
1.000000
1.000000
1.000000
1.000000
1.000000
1.000000
1.000000
1.000000
1.000000
1.000000
1.000000
1.000000
1.000000
1.000000
1.000000
1.000000
1.000000
1.000000
1.000000
1.000000
1.000000
1.000000
1.000000
1.000000
1.000000
1.000000
1.000000
1.000000
1.000000
1.000000
1.000000
1.000000
1.000000
1.000000
1.000000
1.000000
1.000000
1.000000
1.000000
1.000000
1.000000
1.000000
1.000000
1.000000
1.000000
1.000000
1.000000
1.000000
1.000000
1.000000
1.000000
1.000000
1.000000
1.000000
1.000000
1.000000
1.000000
1.000000
1.000000
1.000000
1.000000
1.000000
1.000000
1.000000
1.000000
1.000000
1.000000
1.000000
1.000000
1.000000
1.000000
1.000000
1.000000
1.000000
1.000000
1.000000
1.000000
1.000000
1.000000
1.000000
1.000000
1.000000
1.000000
1.000000
1.000000
1.000000
1.000000
1.000000
1.000000
1.000000
1.000000
1.000000
1.000000
1.000000
1.000000
1.000000
1.000000
1.000000
1.000000
1.000000
1.000000
1.000000
1.000000
1.000000
1.000000
1.000000
1.000000
1.000000
1.000000
1.000000
1.000000
1.000000
1.000000
1.000000
1.000000
1.000000
1.000000
1.000000
1.000000
1.000000
1.000000
1.000000
1.000000
1.000000
1.000000
1.000000
1.000000
1.000000
1.000000
1.000000
1.000000
1.000000
1.000000
1.000000
1.000000
1.000000
1.000000
1.000000
1.000000
1.000000
1.000000
1.000000
1.000000
1.000000
1.000000
1.000000
1.000000
1.000000
1.000000
1.000000
1.000000
1.000000
1.000000
1.000000
1.000000
1.000000
1.000000
1.000000
1.000000
1.000000
1.000000
1.000000
1.000000
1.000000
1.000000
1.000000
1.000000
1.000000
1.000000
1.000000
1.000000
1.000000
1.000000
1.000000
1.000000
1.000000
1.000000
1.000000
1.000000
1.000000
1.000000
1.000000
1.000000
1.000000
1.000000
1.000000
1.000000
1.000000
1.000000
1.000000
1.000000
1.000000
1.000000
1.000000
1.000000
1.000000
1.000000
1.000000
1.000000
1.000000
1.000000
1.000000
1.000000
1.000000
1.000000
1.000000
1.000000
1.000000
1.000000
1.000000
1.000000
1.000000
1.000000
1.000000
1.000000
1.000000
1.000000
1.000000
1.000000
1.000000
1.000000
1.000000
1.000000
1.000000
1.000000
1.000000
1.000000
1.000000
1.000000
1.000000
1.000000
1.000000
1.000000
1.000000
1.000000
1.000000
1.000000
1.000000
1.000000
1.000000
1.000000
1.000000
1.000000
1.000000
1.000000
1.000000
1.000000
1.000000
1.000000
1.000000
1.000000
1.000000
1.000000
1.000000
1.000000
1.000000
1.000000
1.000000
1.000000
1.000000
1.000000
1.000000
1.000000
1.000000
1.000000
1.000000
1.000000
1.000000
1.000000
1.000000
1.000000
1.000000
1.000000
1.000000
1.000000
1.000000
1.000000
1.000000
1.000000
1.000000
1.000000
1.000000
1.000000
1.000000
1.000000
1.000000
1.000000
1.000000
1.000000
1.000000
1.000000
1.000000
1.000000
1.000000
1.000000
1.000000
1.000000
1.000000
1.000000
1.000000
1.000000
1.000000
1.000000
1.000000
1.000000
1.000000
1.000000
1.000000
1.000000
1.000000
1.000000
1.000000
1.000000
1.000000
1.000000
1.000000
1.000000
1.000000
1.000000
1.000000
1.000000
1.000000
1.000000
1.000000
1.000000
1.000000
1.000000
1.000000
1.000000
1.000000
1.000000
1.000000
1.000000
1.000000
1.000000
1.000000
1.000000
1.000000
1.000000
1.000000
1.000000
1.000000
1.000000
1.000000
1.000000
1.000000
1.000000
1.000000
1.000000
1.000000
1.000000
1.000000
1.000000
1.000000
1.000000
1.000000
1.000000
1.000000
1.000000
1.000000
1.000000
1.000000
1.000000
VECTORS v double
3.534095 7.485474 0.000000
-5.577639 -8.772038 0.000000
7.696960 1.564893 0.000000
10.001091 -0.241491 0.000000
11.518781 9.530878 0.000000
10.009319 -0.027584 0.000000
9.997491 -0.000096 0.000000
9.997462 -0.000002 0.000000
9.997461 0.000000 0.000000
9.997461 0.000000 0.000000
9.997461 -0.000000 0.000000
9.997461 0.000000 0.000000
9.997461 -0.000000 0.000000
9.997461 -0.000000 0.000000
9.997461 -0.000000 0.000000
9.997461 -0.000000 0.000000
9.997461 -0.000000 0.000000
9.997462 0.000002 0.000000
9.997491 0.000096 0.000000
10.009335 0.027607 0.000000
11.518048 -9.531715 0.000000
10.001825 0.242719 0.000000
7.669871 -1.816540 0.000000
-6.322454 8.381540 0.000000
3.533640 -7.485625 0.000000
-2.630979 -13.726701 0.000000
8.128060 -2.582885 0.000000
-5.432205 -9.789976 0.000000
-10.128530 1.540547 0.000000
-1.375937 -1.248376 0.000000
9.208559 13.559146 0.000000
-9.997521 -0.002802 0.000000
-9.998503 -0.000007 0.000000
-9.998504 0.000000 0.000000
-9.998504 0.000000 0.000000
-9.998504 -0.000000 0.000000
-9.998504 0.000000 0.000000
-9.998504 -0.000000 0.000000
-9.998504 -0.000000 0.000000
-9.998504 -0.000000 0.000000
-9.998504 -0.000000 0.000000
-9.998504 -0.000000 0.000000
-9.998503 0.000007 0.000000
-9.997521 0.002802 0.000000
9.208796 -13.559122 0.000000
-1.376815 1.248303 0.000000
-10.138071 -1.460983 0.000000
-5.443069 9.781526 0.000000
8.128055 2.582883 0.000000
-2.630979 13.726701 0.000000
9.314447 0.070694 0.000000
-8.372954 4.705799 0.000000
7.230653 -6.327522 0.000000
7.123844 4.156607 0.000000
-10.002620 -0.264218 0.000000
-9.467023 0.514139 0.000000
9.996158 -0.003974 0.000000
9.997612 -0.000004 0.000000
9.997613 0.000000 0.000000
9.997613 0.000000 0.000000
9.997613 0.000000 0.000000
9.997613 0.000000 0.000000
9.997613 -0.000000 0.000000
9.997613 -0.000000 0.000000
9.997613 -0.000000 0.000000
9.997613 -0.000000 0.000000
9.997613 -0.000000 0.000000
9.997612 0.000004 0.000000
9.996158 0.003973 0.000000
-9.466179 -0.513968 0.000000
-10.002665 0.263742 0.000000
7.156271 -4.247948 0.000000
7.229880 6.328525 0.000000
-8.374221 -4.704731 0.000000
9.314445 -0.070696 0.000000
-0.457297 -3.690126 0.000000
-6.873544 -10.616840 0.000000
-4.701593 -5.525038 0.000000
4.373591 8.218972 0.000000
-9.556299 4.132241 0.000000
-9.998262 0.003172 0.000000
-10.000432 -0.000049 0.000000
-10.000362 -0.000001 0.000000
-10.000361 0.000000 0.000000
-10.000361 0.000000 0.000000
-10.000361 0.000000 0.000000
-10.000361 0.000000 0.000000
-10.000361 -0.000000 0.000000
-10.000361 -0.000000 0.000000
-10.000361 -0.000000 0.000000
-10.000361 -0.000000 0.000000
-10.000361 -0.000000 0.000000
-10.000362 0.000001 0.000000
-10.000432 0.000049 0.000000
-9.998262 -0.003172 0.000000
-9.581904 -4.031578 0.000000
5.154716 -7.664541 0.000000
-4.836460 5.083596 0.000000
-6.873549 10.616838 0.000000
-0.457296 3.690127 0.000000
5.396847 5.612304 0.000000
9.557046 2.251664 0.000000
-8.871945 -4.803947 0.000000
2.226187 11.056361 0.000000
10.220067 -0.844790 0.000000
9.998440 -0.002563 0.000000
9.998873 0.000010 0.000000
9.998886 -0.000001 0.000000
9.998886 0.000000 0.000000
9.998886 0.000000 0.000000
9.998886 -0.000000 0.000000
9.998886 0.000000 0.000000
9.998886 -0.000000 0.000000
9.998886 -0.000000 0.000000
9.998886 -0.000000 0.000000
9.998886 -0.000000 0.000000
9.998886 -0.000000 0.000000
9.998886 0.000001 0.000000
9.998873 -0.000010 0.000000
9.998440 0.002563 0.000000
10.222964 0.845251 0.000000
2.199060 -11.177350 0.000000
-8.870835 4.785066 0.000000
9.556984 -2.251686 0.000000
5.396823 -5.612362 0.000000
-1.126154 -6.322630 0.000000
-1.993345 -10.928164 0.000000
8.708657 4.723368 0.000000
-7.634510 10.956983 0.000000
-9.659081 0.293639 0.000000
-10.002370 -0.000189 0.000000
-10.002361 -0.000000 0.000000
-10.002361 0.000000 0.000000
-10.002361 0.000000 0.000000
-10.002361 0.000000 0.000000
-10.002361 0.000000 0.000000
-10.002361 0.000000 0.000000
-10.002361 -0.000000 0.000000
-10.002361 -0.000000 0.000000
-10.002361 -0.000000 0.000000
-10.002361 0.000000 0.000000
-10.002361 -0.000000 0.000000
-10.002361 -0.000000 0.000000
-10.002361 0.000000 0.000000
-10.002370 0.000189 0.000000
-9.749081 -0.206300 0.000000
-8.033849 -10.041307 0.000000
8.704895 -4.722016 0.000000
-1.992909 10.928289 0.000000
-1.126158 6.322632 0.000000
-0.039214 -4.464959 0.000000
2.501445 0.035045 0.000000
-9.638726 -1.213453 0.000000
-10.050051 -0.276951 0.000000
9.997320 -0.003899 0.000000
10.000826 0.000106 0.000000
10.000844 -0.000000 0.000000
10.000844 0.000000 0.000000
10.000844 0.000000 0.000000
10.000844 -0.000000 0.000000
10.000844 0.000000 0.000000
10.000844 0.000000 0.000000
10.000844 -0.000000 0.000000
10.000844 -0.000000 0.000000
10.000844 -0.000000 0.000000
10.000844 0.000000 0.000000
10.000844 -0.000000 0.000000
10.000844 -0.000000 0.000000
10.000844 0.000000 0.000000
10.000826 -0.000106 0.000000
9.997390 0.003817 0.000000
-10.041555 0.298262 0.000000
-9.638473 1.215154 0.000000
2.499339 -0.034703 0.000000
-0.037176 4.486355 0.000000
4.837053 -9.997753 0.000000
10.506783 2.252349 0.000000
1.679081 -3.404013 0.000000
-8.312501 9.314022 0.000000
-10.003450 0.001449 0.000000
-10.003903 -0.000006 0.000000
-10.003904 0.000000 0.000000
-10.003904 -0.000000 0.000000
-10.003904 0.000000 0.000000
-10.003904 -0.000000 0.000000
-10.003904 0.000000 0.000000
-10.003904 0.000000 0.000000
-10.003904 -0.000000 0.000000
-10.003904 -0.000000 0.000000
-10.003904 -0.000000 0.000000
-10.003904 0.000000 0.000000
-10.003904 -0.000000 0.000000
-10.003904 0.000000 0.000000
-10.003904 -0.000000 0.000000
-10.003903 0.000006 0.000000
-10.003452 -0.001357 0.000000
-8.126652 -9.487437 0.000000
1.675318 3.402565 0.000000
11.152402 -2.675745 0.000000
4.837053 9.997753 0.000000
-5.831521 6.453756 0.000000
-9.903167 -1.587212 0.000000
6.380508 -7.062696 0.000000
4.604285 12.877756 0.000000
10.010238 -0.011505 0.000000
10.002884 -0.000017 0.000000
10.002881 0.000000 0.000000
10.002881 0.000000 0.000000
10.002881 0.000000 0.000000
10.002881 -0.000000 0.000000
10.002881 0.000000 0.000000
10.002881 0.000000 0.000000
10.002881 -0.000000 0.000000
10.002881 -0.000000 0.000000
10.002881 -0.000000 0.000000
10.002881 0.000000 0.000000
10.002881 -0.000000 0.000000
10.002881 -0.000000 0.000000
10.002881 -0.000000 0.000000
10.002884 0.000017 0.000000
10.010220 0.011443 0.000000
4.608366 -12.879256 0.000000
6.194072 7.207511 0.000000
-9.902887 1.586161 0.000000
-5.831533 -6.453760 0.000000
-10.003762 0.004867 0.000000
-3.933379 -8.259100 0.000000
-10.077262 0.534852 0.000000
-10.000643 0.200568 0.000000
-10.013627 -0.011987 0.000000
-10.004706 -0.000014 0.000000
-10.004703 0.000000 0.000000
-10.004703 0.000000 0.000000
-10.004703 0.000000 0.000000
-10.004703 -0.000000 0.000000
-10.004703 0.000000 0.000000
-10.004703 0.000000 0.000000
-10.004703 -0.000000 0.000000
-10.004703 -0.000000 0.000000
-10.004703 -0.000000 0.000000
-10.004703 0.000000 0.000000
-10.004703 -0.000000 0.000000
-10.004703 -0.000000 0.000000
-10.004703 -0.000000 0.000000
-10.004706 0.000014 0.000000
-10.013656 0.012051 0.000000
-9.999696 -0.250849 0.000000
-10.077251 -0.535894 0.000000
-3.933378 8.259095 0.000000
-10.003762 -0.004867 0.000000
-11.491166 -1.081960 0.000000
0.876049 -8.105109 0.000000
-3.197406 7.339953 0.000000
10.010896 -0.181007 0.000000
10.003968 -0.000012 0.000000
10.004426 -0.000005 0.000000
10.004430 0.000000 0.000000
10.004430 0.000000 0.000000
10.004430 0.000000 0.000000
10.004430 -0.000000 0.000000
10.004430 -0.000000 0.000000
10.004430 0.000000 0.000000
10.004430 -0.000000 0.000000
10.004430 -0.000000 0.000000
10.004430 -0.000000 0.000000
10.004430 0.000000 0.000000
10.004430 -0.000000 0.000000
10.004430 -0.000000 0.000000
10.004430 -0.000000 0.000000
10.004426 0.000005 0.000000
10.003967 0.000002 0.000000
10.009782 0.224112 0.000000
-3.181102 -7.337103 0.000000
0.878223 8.106418 0.000000
-11.491169 1.081963 0.000000
-10.022696 -0.008516 0.000000
5.994824 -5.390175 0.000000
-2.125857 12.923657 0.000000
-10.036384 -0.046707 0.000000
-10.004780 -0.000035 0.000000
-10.004762 -0.000001 0.000000
-10.004761 0.000000 0.000000
-10.004761 0.000000 0.000000
-10.004761 0.000000 0.000000
-10.004761 -0.000000 0.000000
-10.004761 -0.000000 0.000000
-10.004761 0.000000 0.000000
-10.004761 -0.000000 0.000000
-10.004761 -0.000000 0.000000
-10.004761 -0.000000 0.000000
-10.004761 0.000000 0.000000
-10.004761 -0.000000 0.000000
-10.004761 -0.000000 0.000000
-10.004761 -0.000000 0.000000
-10.004762 0.000001 0.000000
-10.004780 0.000037 0.000000
-10.036920 0.041848 0.000000
-2.126707 -12.922726 0.000000
5.996294 5.391476 0.000000
-10.022696 0.008516 0.000000
-10.000072 0.006880 0.000000
-9.986785 0.025686 0.000000
-0.397687 -5.506655 0.000000