# vtk DataFile Version 4.0
hesp visualization file
ASCII
DATASET UNSTRUCTURED_GRID
POINTS 1250 double
30.417509 1.237170 4.000000
30.426971 2.247737 4.000000
30.426977 3.367385 4.000000
30.426977 4.489848 4.000000
30.426977 5.612310 4.000000
30.426977 6.734772 4.000000
30.426977 7.857234 4.000000
30.426977 8.979696 4.000000
30.426977 10.102158 4.000000
30.426977 11.224620 4.000000
30.426977 12.347083 4.000000
30.426977 13.469545 4.000000
30.426977 14.592007 4.000000
30.426977 15.714469 4.000000
30.426977 16.836931 4.000000
30.426977 17.959393 4.000000
30.426977 19.081855 4.000000
30.426977 20.204317 4.000000
30.426977 21.326779 4.000000
30.426977 22.449241 4.000000
30.426977 23.571703 4.000000
30.426977 24.694165 4.000000
30.426977 25.816628 4.000000
30.426971 26.936276 4.000000
30.417509 27.946844 4.000000
31.355870 0.760982 4.000000
30.900126 2.228442 4.000000
30.899772 3.367391 4.000000
30.899772 4.489848 4.000000
30.899772 5.612310 4.000000
30.899772 6.734772 4.000000
30.899772 7.857234 4.000000
30.899772 8.979696 4.000000
30.899772 10.102158 4.000000
30.899772 11.224620 4.000000
30.899772 12.347083 4.000000
30.899772 13.469545 4.000000
30.899772 14.592007 4.000000
30.899772 15.714469 4.000000
30.899772 16.836931 4.000000
30.899772 17.959393 4.000000
30.899772 19.081855 4.000000
30.899772 20.204317 4.000000
30.899772 21.326779 4.000000
30.899772 22.449241 4.000000
30.899772 23.571703 4.000000
30.899772 24.694165 4.000000
30.899772 25.816623 4.000000
30.900126 26.955571 4.000000
31.355870 28.423031 4.000000
31.296689 1.476701 4.000000
31.753364 2.261246 4.000000
31.753718 3.367382 4.000000
31.753718 4.489848 4.000000
31.753718 5.612310 4.000000
31.753718 6.734772 4.000000
31.753718 7.857234 4.000000
31.753718 8.979696 4.000000
31.753718 10.102158 4.000000
31.753718 11.224620 4.000000
31.753718 12.347083 4.000000
31.753718 13.469545 4.000000
31.753718 14.592007 4.000000
31.753718 15.714469 4.000000
31.753718 16.836931 4.000000
31.753718 17.959393 4.000000
31.753718 19.081855 4.000000
31.753718 20.204317 4.000000
31.753718 21.326779 4.000000
31.753718 22.449241 4.000000
31.753718 23.571703 4.000000
31.753718 24.694165 4.000000
31.753718 25.816631 4.000000
31.753364 26.922767 4.000000
31.296689 27.707312 4.000000
32.348024 0.799882 4.000000
32.226547 2.235844 4.000000
32.226464 3.367388 4.000000
32.226464 4.489848 4.000000
32.226464 5.612310 4.000000
32.226464 6.734772 4.000000
32.226464 7.857234 4.000000
32.226464 8.979696 4.000000
32.226464 10.102158 4.000000
32.226464 11.224620 4.000000
32.226464 12.347083 4.000000
32.226464 13.469545 4.000000
32.226464 14.592007 4.000000
32.226464 15.714469 4.000000
32.226464 16.836931 4.000000
32.226464 17.959393 4.000000
32.226464 19.081855 4.000000
32.226464 20.204317 4.000000
32.226464 21.326779 4.000000
32.226464 22.449241 4.000000
32.226464 23.571703 4.000000
32.226464 24.694165 4.000000
32.226464 25.816625 4.000000
32.226547 26.948169 4.000000
32.348024 28.384132 4.000000
32.950161 1.358014 4.000000
33.080279 2.251776 4.000000
33.080367 3.367385 4.000000
33.080367 4.489848 4.000000
33.080367 5.612310 4.000000
33.080367 6.734772 4.000000
33.080367 7.857234 4.000000
33.080367 8.979696 4.000000
33.080367 10.102158 4.000000
33.080367 11.224620 4.000000
33.080367 12.347083 4.000000
33.080367 13.469545 4.000000
33.080367 14.592007 4.000000
33.080367 15.714469 4.000000
33.080367 16.836931 4.000000
33.080367 17.959393 4.000000
33.080367 19.081855 4.000000
33.080367 20.204317 4.000000
33.080367 21.326779 4.000000
33.080367 22.449241 4.000000
33.080367 23.571703 4.000000
33.080367 24.694165 4.000000
33.080367 25.816629 4.000000
33.080279 26.932237 4.000000
32.950161 27.825999 4.000000
33.554864 1.078456 4.000000
33.553081 2.243771 4.000000
33.553080 3.367386 4.000000
33.553080 4.489848 4.000000
33.553080 5.612310 4.000000
33.553080 6.734772 4.000000
33.553080 7.857234 4.000000
33.553080 8.979696 4.000000
33.553080 10.102158 4.000000
33.553080 11.224620 4.000000
33.553080 12.347083 4.000000
33.553080 13.469545 4.000000
33.553080 14.592007 4.000000
33.553080 15.714469 4.000000
33.553080 16.836931 4.000000
33.553080 17.959393 4.000000
33.553080 19.081855 4.000000
33.553080 20.204317 4.000000
33.553080 21.326779 4.000000
33.553080 22.449241 4.000000
33.553080 23.571703 4.000000
33.553080 24.694165 4.000000
33.553080 25.816627 4.000000
33.553081 26.940243 4.000000
33.554864 28.105557 4.000000
34.404560 1.152088 4.000000
34.406518 2.245677 4.000000
34.406519 3.367386 4.000000
34.406519 4.489848 4.000000
34.406519 5.612310 4.000000
34.406519 6.734772 4.000000
34.406519 7.857234 4.000000
34.406519 8.979696 4.000000
34.406519 10.102158 4.000000
34.406519 11.224620 4.000000
34.406519 12.347083 4.000000
34.406519 13.469545 4.000000
34.406519 14.592007 4.000000
34.406519 15.714469 4.000000
34.406519 16.836931 4.000000
34.406519 17.959393 4.000000
34.406519 19.081855 4.000000
34.406519 20.204317 4.000000
34.406519 21.326779 4.000000
34.406519 22.449241 4.000000
34.406519 23.571703 4.000000
34.406519 24.694165 4.000000
34.406519 25.816627 4.000000
34.406518 26.938336 4.000000
34.404560 28.031925 4.000000
34.879643 1.123207 4.000000
34.879641 2.244929 4.000000
34.879641 3.367386 4.000000
34.879641 4.489848 4.000000
34.879641 5.612310 4.000000
34.879641 6.734772 4.000000
34.879641 7.857234 4.000000
34.879641 8.979696 4.000000
34.879641 10.102158 4.000000
34.879641 11.224620 4.000000
34.879641 12.347083 4.000000
34.879641 13.469545 4.000000
34.879641 14.592007 4.000000
34.879641 15.714469 4.000000
34.879641 16.836931 4.000000
34.879641 17.959393 4.000000
34.879641 19.081855 4.000000
34.879641 20.204317 4.000000
34.879641 21.326779 4.000000
34.879641 22.449241 4.000000
34.879641 23.571703 4.000000
34.879641 24.694165 4.000000
34.879641 25.816627 4.000000
34.879641 26.939085 4.000000
34.879643 28.060807 4.000000
36.002158 1.123204 4.000000
36.002158 2.244929 4.000000
36.002158 3.367386 4.000000
36.002158 4.489848 4.000000
36.002158 5.612310 4.000000
36.002158 6.734772 4.000000
36.002158 7.857234 4.000000
36.002158 8.979696 4.000000
36.002158 10.102158 4.000000
36.002158 11.224620 4.000000
36.002158 12.347083 4.000000
36.002158 13.469545 4.000000
36.002158 14.592007 4.000000
36.002158 15.714469 4.000000
36.002158 16.836931 4.000000
36.002158 17.959393 4.000000
36.002158 19.081855 4.000000
36.002158 20.204317 4.000000
36.002158 21.326779 4.000000
36.002158 22.449241 4.000000
36.002158 23.571703 4.000000
36.002158 24.694165 4.000000
36.002158 25.816627 4.000000
36.002158 26.939085 4.000000
36.002158 28.060809 4.000000
37.124620 1.123204 4.000000
37.124620 2.244929 4.000000
37.124620 3.367386 4.000000
37.124620 4.489848 4.000000
37.124620 5.612310 4.000000
37.124620 6.734772 4.000000
37.124620 7.857234 4.000000
37.124620 8.979696 4.000000
37.124620 10.102158 4.000000
37.124620 11.224620 4.000000
37.124620 12.347083 4.000000
37.124620 13.469545 4.000000
37.124620 14.592007 4.000000
37.124620 15.714469 4.000000
37.124620 16.836931 4.000000
37.124620 17.959393 4.000000
37.124620 19.081855 4.000000
37.124620 20.204317 4.000000
37.124620 21.326779 4.000000
37.124620 22.449241 4.000000
37.124620 23.571703 4.000000
37.124620 24.694165 4.000000
37.124620 25.816627 4.000000
37.124620 26.939085 4.000000
37.124620 28.060809 4.000000
38.247083 1.123204 4.000000
38.247083 2.244929 4.000000
38.247083 3.367386 4.000000
38.247083 4.489848 4.000000
38.247083 5.612310 4.000000
38.247083 6.734772 4.000000
38.247083 7.857234 4.000000
38.247083 8.979696 4.000000
38.247083 10.102158 4.000000
38.247083 11.224620 4.000000
38.247083 12.347083 4.000000
38.247083 13.469545 4.000000
38.247083 14.592007 4.000000
38.247083 15.714469 4.000000
38.247083 16.836931 4.000000
38.247083 17.959393 4.000000
38.247083 19.081855 4.000000
38.247083 20.204317 4.000000
38.247083 21.326779 4.000000
38.247083 22.449241 4.000000
38.247083 23.571703 4.000000
38.247083 24.694165 4.000000
38.247083 25.816627 4.000000
38.247083 26.939085 4.000000
38.247083 28.060809 4.000000
39.369545 1.123204 4.000000
39.369545 2.244929 4.000000
39.369545 3.367386 4.000000
39.369545 4.489848 4.000000
39.369545 5.612310 4.000000
39.369545 6.734772 4.000000
39.369545 7.857234 4.000000
39.369545 8.979696 4.000000
39.369545 10.102158 4.000000
39.369545 11.224620 4.000000
39.369545 12.347083 4.000000
39.369545 13.469545 4.000000
39.369545 14.592007 4.000000
39.369545 15.714469 4.000000
39.369545 16.836931 4.000000
39.369545 17.959393 4.000000
39.369545 19.081855 4.000000
39.369545 20.204317 4.000000
39.369545 21.326779 4.000000
39.369545 22.449241 4.000000
39.369545 23.571703 4.000000
39.369545 24.694165 4.000000
39.369545 25.816627 4.000000
39.369545 26.939085 4.000000
39.369545 28.060809 4.000000
40.492007 1.123204 4.000000
40.492007 2.244929 4.000000
40.492007 3.367386 4.000000
40.492007 4.489848 4.000000
40.492007 5.612310 4.000000
40.492007 6.734772 4.000000
40.492007 7.857234 4.000000
40.492007 8.979696 4.000000
40.492007 10.102158 4.000000
40.492007 11.224620 4.000000
40.492007 12.347083 4.000000
40.492007 13.469545 4.000000
40.492007 14.592007 4.000000
40.492007 15.714469 4.000000
40.492007 16.836931 4.000000
40.492007 17.959393 4.000000
40.492007 19.081855 4.000000
40.492007 20.204317 4.000000
40.492007 21.326779 4.000000
40.492007 22.449241 4.000000
40.492007 23.571703 4.000000
40.492007 24.694165 4.000000
40.492007 25.816627 4.000000
40.492007 26.939085 4.000000
40.492007 28.060809 4.000000
41.614469 1.123204 4.000000
41.614469 2.244929 4.000000
41.614469 3.367386 4.000000
41.614469 4.489848 4.000000
41.614469 5.612310 4.000000
41.614469 6.734772 4.000000
41.614469 7.857234 4.000000
41.614469 8.979696 4.000000
41.614469 10.102158 4.000000
41.614469 11.224620 4.000000
41.614469 12.347083 4.000000
41.614469 13.469545 4.000000
41.614469 14.592007 4.000000
41.614469 15.714469 4.000000
41.614469 16.836931 4.000000
41.614469 17.959393 4.000000
41.614469 19.081855 4.000000
41.614469 20.204317 4.000000
41.614469 21.326779 4.000000
41.614469 22.449241 4.000000
[...]
POINT_DATA 1250
SCALARS m double
LOOKUP_TABLE default
1.000000
1.000000
1.000000
1.000000
1.000000
1.000000
1.000000
1.000000
1.000000
1.000000
1.000000
1.000000
1.000000
1.000000
1.000000
1.000000
1.000000
1.000000
1.000000
1.000000
1.000000
1.000000
1.000000
1.000000
1.000000
1.000000
1.000000
1.000000
1.000000
1.000000
1.000000
1.000000
1.000000
1.000000
1.000000
1.000000
1.000000
1.000000
1.000000
1.000000
1.000000
1.000000
1.000000
1.000000
1.000000
1.000000
1.000000
1.000000
1.000000
1.000000
1.000000
1.000000
1.000000
1.000000
1.000000
1.000000
1.000000
1.000000
1.000000
1.000000
1.000000
1.000000
1.000000
1.000000
1.000000
1.000000
1.000000
1.000000
1.000000
1.000000
1.000000
1.000000
1.000000
1.000000
1.000000
1.000000
1.000000
1.000000
1.000000
1.000000
1.000000
1.000000
1.000000
1.000000
1.000000
1.000000
1.000000
1.000000
1.000000
1.000000
1.000000
1.000000
1.000000
1.000000
1.000000
1.000000
1.000000
1.000000
1.000000
1.000000
1.000000
1.000000
1.000000
1.000000
1.000000
1.000000
1.000000
1.000000
1.000000
1.000000
1.000000
1.000000
1.000000
1.000000
1.000000
1.000000
1.000000
1.000000
1.000000
1.000000
1.000000
1.000000
1.000000
1.000000
1.000000
1.000000
1.000000
1.000000
1.000000
1.000000
1.000000
1.000000
1.000000
1.000000
1.000000
1.000000
1.000000
1.000000
1.000000
1.000000
1.000000
1.000000
1.000000
1.000000
1.000000
1.000000
1.000000
1.000000
1.000000
1.000000
1.000000
1.000000
1.000000
1.000000
1.000000
1.000000
1.000000
1.000000
1.000000
1.000000
1.000000
1.000000
1.000000
1.000000
1.000000
1.000000
1.000000
1.000000
1.000000
1.000000
1.000000
1.000000
1.000000
1.000000
1.000000
1.000000
1.000000
1.000000
1.000000
1.000000
1.000000
1.000000
1.000000
1.000000
1.000000
1.000000
1.000000
1.000000
1.000000
1.000000
1.000000
1.000000
1.000000
1.000000
1.000000
1.000000
1.000000
1.000000
1.000000
1.000000
1.000000
1.000000
1.000000
1.000000
1.000000
1.000000
1.000000
1.000000
1.000000
1.000000
1.000000
1.000000
1.000000
1.000000
1.000000
1.000000
1.000000
1.000000
1.000000
1.000000
1.000000
1.000000
1.000000
1.000000
1.000000
1.000000
1.000000
1.000000
1.000000
1.000000
1.000000
1.000000
1.000000
1.000000
1.000000
1.000000
1.000000
1.000000
1.000000
1.000000
1.000000
1.000000
1.000000
1.000000
1.000000
1.000000
1.000000
1.000000
1.000000
1.000000
1.000000
1.000000
1.000000
1.000000
1.000000
1.000000
1.000000
1.000000
1.000000
1.000000
1.000000
1.000000
1.000000
1.000000
1.000000
1.000000
1.000000
1.000000
1.000000
1.000000
1.000000
1.000000
1.000000
1.000000
1.000000
1.000000
1.000000
1.000000
1.000000
1.000000
1.000000
1.000000
1.000000
1.000000
1.000000
1.000000
1.000000
1.000000
1.000000
1.000000
1.000000
1.000000
1.000000
1.000000
1.000000
1.000000
1.000000
1.000000
1.000000
1.000000
1.000000
1.000000
1.000000
1.000000
1.000000
1.000000
1.000000
1.000000
1.000000
1.000000
1.000000
1.000000
1.000000
1.000000
1.000000
1.000000
1.000000
1.000000
1.000000
1.000000
1.000000
1.000000
1.000000
1.000000
1.000000
1.000000
1.000000
1.000000
1.000000
1.000000
1.000000
1.000000
1.000000
1.000000
1.000000
1.000000
1.000000
1.000000
1.000000
1.000000
1.000000
1.000000
1.000000
1.000000
1.000000
1.000000
1.000000
1.000000
1.000000
1.000000
1.000000
1.000000
1.000000
1.000000
1.000000
1.000000
1.000000
1.000000
1.000000
1.000000
1.000000
1.000000
1.000000
1.000000
1.000000
1.000000
1.000000
1.000000
1.000000
1.000000
1.000000
1.000000
1.000000
1.000000
1.000000
1.000000
1.000000
1.000000
1.000000
1.000000
1.000000
1.000000
1.000000
1.000000
1.000000
1.000000
1.000000
1.000000
1.000000
1.000000
1.000000
1.000000
1.000000
1.000000
1.000000
1.000000
1.000000
1.000000
1.000000
1.000000
1.000000
1.000000
1.000000
1.000000
1.000000
1.000000
1.000000
1.000000
1.000000
1.000000
1.000000
1.000000
1.000000
1.000000
1.000000
1.000000
1.000000
1.000000
1.000000
1.000000
1.000000
1.000000
1.000000
1.000000
1.000000
1.000000
1.000000
1.000000
1.000000
1.000000
1.000000
1.000000
1.000000
1.000000
1.000000
1.000000
1.000000
1.000000
1.000000
1.000000
1.000000
1.000000
1.000000
1.000000
1.000000
1.000000
1.000000
1.000000
1.000000
1.000000
1.000000
1.000000
1.000000
1.000000
1.000000
1.000000
1.000000
1.000000
1.000000
1.000000
1.000000
1.000000
1.000000
1.000000
1.000000
1.000000
1.000000
1.000000
1.000000
1.000000
1.000000
1.000000
1.000000
1.000000
1.000000
1.000000
1.000000
1.000000
1.000000
1.000000
1.000000
1.000000
1.000000
1.000000
1.000000
1.000000
1.000000
1.000000
1.000000
1.000000
1.000000
1.000000
1.000000
1.000000
1.000000
1.000000
1.000000
1.000000
1.000000
1.000000
1.000000
1.000000
1.000000
1.000000
1.000000
1.000000
1.000000
1.000000
1.000000
1.000000
1.000000
1.000000
1.000000
1.000000
1.000000
1.000000
1.000000
1.000000
1.000000
1.000000
1.000000
1.000000
1.000000
1.000000
1.000000
1.000000
1.000000
1.000000
1.000000
1.000000
1.000000
1.000000
1.000000
1.000000
1.000000
1.000000
1.000000
1.000000
1.000000
1.000000
1.000000
1.000000
1.000000
1.000000
1.000000
1.000000
1.000000
1.000000
1.000000
1.000000
1.000000
1.000000
1.000000
1.000000
1.000000
1.000000
1.000000
1.000000
1.000000
1.000000
1.000000
1.000000
1.000000
1.000000
1.000000
1.000000
1.000000
1.000000
1.000000
1.000000
1.000000
1.000000
1.000000
1.000000
1.000000
1.000000
1.000000
1.000000
1.000000
1.000000
1.000000
1.000000
1.000000
1.000000
1.000000
1.000000
1.000000
1.000000
1.000000
1.000000
1.000000
1.000000
1.000000
1.000000
1.000000
1.000000
1.000000
1.000000
1.000000
1.000000
1.000000
1.000000
1.000000
1.000000
1.000000
1.000000
1.000000
1.000000
1.000000
1.000000
1.000000
1.000000
1.000000
1.000000
1.000000
1.000000
1.000000
1.000000
1.000000
1.000000
1.000000
1.000000
1.000000
1.000000
1.000000
1.000000
1.000000
1.000000
1.000000
1.000000
1.000000
1.000000
1.000000
1.000000
1.000000
1.000000
1.000000
1.000000
1.000000
1.000000
1.000000
1.000000
1.000000
1.000000
1.000000
1.000000
1.000000
1.000000
1.000000
1.000000
1.000000
1.000000
1.000000
1.000000
1.000000
1.000000
1.000000
1.000000
1.000000
1.000000
1.000000
1.000000
1.000000
1.000000
1.000000
1.000000
1.000000
1.000000
1.000000
1.000000
1.000000
1.000000
1.000000
1.000000
1.000000
1.000000
1.000000
1.000000
1.000000
1.000000
1.000000
1.000000
1.000000
1.000000
1.000000
1.000000
1.000000
1.000000
1.000000
1.000000
1.000000
1.000000
1.000000
1.000000
1.000000
1.000000
1.000000
1.000000
1.000000
1.000000
1.000000
1.000000
1.000000
1.000000
1.000000
1.000000
1.000000
1.000000
1.000000
1.000000
1.000000
1.000000
1.000000
1.000000
1.000000
1.000000
1.000000
1.000000
1.000000
1.000000
1.000000
1.000000
1.000000
1.000000
1.000000
1.000000
1.000000
1.000000
1.000000
1.000000
1.000000
1.000000
1.000000
1.000000
1.000000
1.000000
1.000000
1.000000
1.000000
1.000000
1.000000
1.000000
1.000000
1.000000
1.000000
1.000000
1.000000
1.000000
1.000000
1.000000
1.000000
1.000000
1.000000
1.000000
1.000000
1.000000
1.000000
1.000000
1.000000
1.000000
1.000000
1.000000
1.000000
1.000000
1.000000
1.000000
1.000000
1.000000
1.000000
1.000000
1.000000
1.000000
1.000000
1.000000
1.000000
1.000000
1.000000
1.000000
1.000000
1.000000
1.000000
1.000000
1.000000
1.000000
1.000000
1.000000
1.000000
1.000000
1.000000
1.000000
1.000000
1.000000
1.000000
1.000000
1.000000
1.000000
1.000000
1.000000
1.000000
1.000000
1.000000
1.000000
1.000000
1.000000
1.000000
1.000000
1.000000
1.000000
1.000000
1.000000
1.000000
1.000000
1.000000
1.000000
1.000000
1.000000
1.000000
1.000000
1.000000
1.000000
1.000000
1.000000
1.000000
1.000000
1.000000
1.000000
1.000000
1.000000
1.000000
1.000000
1.000000
1.000000
1.000000
1.000000
1.000000
1.000000
1.000000
1.000000
1.000000
1.000000
1.000000
1.000000
1.000000
1.000000
1.000000
1.000000
1.000000
1.000000
1.000000
1.000000
1.000000
1.000000
1.000000
1.000000
1.000000
1.000000
1.000000
1.000000
1.000000
1.000000
1.000000
1.000000
1.000000
1.000000
1.000000
1.000000
1.000000
1.000000
1.000000
1.000000
1.000000
1.000000
1.000000
1.000000
1.000000
1.000000
1.000000
1.000000
1.000000
1.000000
1.000000
1.000000
1.000000
1.000000
1.000000
1.000000
1.000000
1.000000
1.000000
1.000000
1.000000
1.000000
1.000000
1.000000
1.000000
1.000000
1.000000
1.000000
1.000000
1.000000
1.000000
1.000000
1.000000
1.000000
1.000000
1.000000
1.000000
1.000000
1.000000
1.000000
1.000000
1.000000
1.000000
1.000000
1.000000
1.000000
1.000000
1.000000
1.000000
1.000000
1.000000
1.000000
1.000000
1.000000
1.000000
1.000000
1.000000
1.000000
1.000000
1.000000
1.000000
1.000000
1.000000
1.000000
1.000000
1.000000
1.000000
1.000000
1.000000
1.000000
1.000000
1.000000
1.000000
1.000000
1.000000
1.000000
1.000000
1.000000
1.000000
1.000000
1.000000
1.000000
1.000000
1.000000
1.000000
1.000000
1.000000
1.000000
1.000000
1.000000
1.000000
1.000000
1.000000
1.000000
1.000000
1.000000
1.000000
1.000000
1.000000
1.000000
1.000000
1.000000
1.000000
1.000000
1.000000
1.000000
1.000000
1.000000
1.000000
1.000000
1.000000
1.000000
1.000000
1.000000
1.000000
1.000000
1.000000
1.000000
1.000000
1.000000
1.000000
1.000000
1.000000
1.000000
1.000000
1.000000
1.000000
1.000000
1.000000
1.000000
1.000000
1.000000
1.000000
1.000000
1.000000
1.000000
1.000000
1.000000
1.000000
1.000000
1.000000
1.000000
1.000000
1.000000
1.000000
1.000000
1.000000
1.000000
1.000000
1.000000
1.000000
1.000000
1.000000
1.000000
1.000000
1.000000
1.000000
1.000000
1.000000
1.000000
1.000000
1.000000
1.000000
1.000000
1.000000
1.000000
1.000000
1.000000
1.000000
1.000000
1.000000
1.000000
1.000000
1.000000
1.000000
1.000000
1.000000
1.000000
1.000000
1.000000
1.000000
1.000000
1.000000
1.000000
1.000000
1.000000
1.000000
1.000000
1.000000
1.000000
1.000000
1.000000
1.000000
1.000000
1.000000
1.000000
1.000000
1.000000
1.000000
1.000000
1.000000
1.000000
1.000000
1.000000
1.000000
1.000000
1.000000
1.000000
1.000000
1.000000
1.000000
1.000000
1.000000
1.000000
1.000000
1.000000
1.000000
1.000000
1.000000
1.000000
1.000000
1.000000
1.000000
1.000000
1.000000
1.000000
1.000000
1.000000
1.000000
1.000000
1.000000
1.000000
1.000000
1.000000
1.000000
1.000000
1.000000
1.000000
1.000000
1.000000
1.000000
1.000000
1.000000
1.000000
1.000000
1.000000
1.000000
1.000000
1.000000
1.000000
1.000000
1.000000
1.000000
1.000000
1.000000
1.000000
1.000000
1.000000
1.000000
1.000000
1.000000
1.000000
1.000000
1.000000
1.000000
1.000000
1.000000
1.000000
1.000000
1.000000
1.000000
1.000000
1.000000
1.000000
1.000000
1.000000
1.000000
1.000000
1.000000
1.000000
1.000000
1.000000
1.000000
1.000000
1.000000
1.000000
1.000000
1.000000
1.000000
1.000000
1.000000
1.000000
1.000000
1.000000
1.000000
1.000000
1.000000
1.000000
1.000000
1.000000
1.000000
1.000000
1.000000
1.000000
1.000000
1.000000
1.000000
1.000000
1.000000
1.000000
1.000000
1.000000
1.000000
1.000000
1.000000
1.000000
1.000000
1.000000
1.000000
1.000000
1.000000
1.000000
1.000000
1.000000
1.000000
1.000000
1.000000
1.000000
1.000000
1.000000
1.000000
1.000000
1.000000
1.000000
1.000000
1.000000
1.000000
1.000000
1.000000
1.000000
1.000000
1.000000
1.000000
1.000000
1.000000
1.000000
1.000000
1.000000
1.000000
1.000000
1.000000
1.000000
1.000000
1.000000
1.000000
1.000000
1.000000
1.000000
1.000000
1.000000
1.000000
1.000000
1.000000
1.000000
1.000000
1.000000
1.000000
1.000000
1.000000
1.000000
1.000000
1.000000
1.000000
1.000000
1.000000
1.000000
1.000000
1.000000
1.000000
1.000000
VECTORS v double
9.884890 1.428061 0.000000
10.015534 0.034528 0.000000
10.015696 -0.000015 0.000000
10.015697 0.000000 0.000000
10.015697 0.000000 0.000000
10.015697 0.000000 0.000000
10.015697 -0.000000 0.000000
10.015697 -0.000000 0.000000
10.015697 0.000000 0.000000
10.015697 -0.000000 0.000000
10.015697 0.000000 0.000000
10.015697 0.000000 0.000000
10.015697 -0.000000 0.000000
10.015697 -0.000000 0.000000
10.015697 -0.000000 0.000000
10.015697 0.000000 0.000000
10.015697 -0.000000 0.000000
10.015697 -0.000000 0.000000
10.015697 0.000000 0.000000
10.015697 -0.000000 0.000000
10.015697 -0.000000 0.000000
10.015697 -0.000000 0.000000
10.015696 0.000015 0.000000
10.015534 -0.034528 0.000000
9.884890 -1.428061 0.000000
3.551982 -9.409926 0.000000
-10.004449 -0.443736 0.000000
-10.014558 0.000124 0.000000
-10.014560 0.000000 0.000000
-10.014560 -0.000000 0.000000
-10.014560 0.000000 0.000000
-10.014560 -0.000000 0.000000
-10.014560 -0.000000 0.000000
-10.014560 0.000000 0.000000
-10.014560 -0.000000 0.000000
-10.014560 0.000000 0.000000
-10.014560 0.000000 0.000000
-10.014560 -0.000000 0.000000
-10.014560 -0.000000 0.000000
-10.014560 -0.000000 0.000000
-10.014560 0.000000 0.000000
-10.014560 -0.000000 0.000000
-10.014560 -0.000000 0.000000
-10.014560 0.000000 0.000000
-10.014560 -0.000000 0.000000
-10.014560 0.000000 0.000000
-10.014560 -0.000000 0.000000
-10.014558 -0.000124 0.000000
-10.004449 0.443736 0.000000
3.551982 9.409926 0.000000
-3.561539 9.323332 0.000000
10.006435 0.441077 0.000000
10.016556 -0.000123 0.000000
10.016555 -0.000000 0.000000
10.016555 0.000000 0.000000
10.016555 0.000000 0.000000
10.016555 -0.000000 0.000000
10.016555 -0.000000 0.000000
10.016555 0.000000 0.000000
10.016555 -0.000000 0.000000
10.016555 0.000000 0.000000
10.016555 0.000000 0.000000
10.016555 -0.000000 0.000000
10.016555 -0.000000 0.000000
10.016555 -0.000000 0.000000
10.016555 0.000000 0.000000
10.016555 -0.000000 0.000000
10.016555 -0.000000 0.000000
10.016555 0.000000 0.000000
10.016555 0.000000 0.000000
10.016555 -0.000000 0.000000
10.016555 0.000000 0.000000
10.016556 0.000123 0.000000
10.006435 -0.441077 0.000000
-3.561539 -9.323332 0.000000
-6.527488 -8.150477 0.000000
-10.010968 -0.228859 0.000000
-10.013460 0.000053 0.000000
-10.013460 0.000000 0.000000
-10.013460 0.000000 0.000000
-10.013460 0.000000 0.000000
-10.013460 -0.000000 0.000000
-10.013460 -0.000000 0.000000
-10.013460 0.000000 0.000000
-10.013460 -0.000000 0.000000
-10.013460 0.000000 0.000000
-10.013460 0.000000 0.000000
-10.013460 -0.000000 0.000000
-10.013460 -0.000000 0.000000
-10.013460 -0.000000 0.000000
-10.013460 0.000000 0.000000
-10.013460 -0.000000 0.000000
-10.013460 -0.000000 0.000000
-10.013460 0.000000 0.000000
-10.013460 0.000000 0.000000
-10.013460 -0.000000 0.000000
-10.013460 -0.000000 0.000000
-10.013460 -0.000053 0.000000
-10.010968 0.228859 0.000000
-6.527488 8.150477 0.000000
6.428247 7.037666 0.000000
10.014487 0.200753 0.000000
10.016905 -0.000044 0.000000
10.016904 -0.000000 0.000000
10.016904 -0.000000 0.000000
10.016904 -0.000000 0.000000
10.016904 -0.000000 0.000000
10.016904 -0.000000 0.000000
10.016904 0.000000 0.000000
10.016904 -0.000000 0.000000
10.016904 -0.000000 0.000000
10.016904 0.000000 0.000000
10.016904 -0.000000 0.000000
10.016904 -0.000000 0.000000
10.016904 -0.000000 0.000000
10.016904 0.000000 0.000000
10.016904 -0.000000 0.000000
10.016904 -0.000000 0.000000
10.016904 0.000000 0.000000
10.016904 0.000000 0.000000
10.016904 0.000000 0.000000
10.016904 0.000000 0.000000
10.016905 0.000044 0.000000
10.014487 -0.200753 0.000000
6.428247 -7.037666 0.000000
-9.953657 -1.093263 0.000000
-10.012677 -0.028242 0.000000
-10.012707 0.000004 0.000000
-10.012706 -0.000000 0.000000
-10.012706 0.000000 0.000000
-10.012706 0.000000 0.000000
-10.012706 -0.000000 0.000000
-10.012706 -0.000000 0.000000
-10.012706 0.000000 0.000000
-10.012706 -0.000000 0.000000
-10.012706 -0.000000 0.000000
-10.012706 0.000000 0.000000
-10.012706 -0.000000 0.000000
-10.012706 -0.000000 0.000000
-10.012706 -0.000000 0.000000
-10.012706 0.000000 0.000000
-10.012706 -0.000000 0.000000
-10.012706 -0.000000 0.000000
-10.012706 0.000000 0.000000
-10.012706 -0.000000 0.000000
-10.012706 -0.000000 0.000000
-10.012706 0.000000 0.000000
-10.012707 -0.000004 0.000000
-10.012677 0.028242 0.000000
-9.953657 1.093263 0.000000
9.963297 0.898102 0.000000
10.015328 0.023180 0.000000
10.015359 -0.000004 0.000000
10.015359 -0.000000 0.000000
10.015359 -0.000000 0.000000
10.015359 -0.000000 0.000000
10.015359 -0.000000 0.000000
10.015359 -0.000000 0.000000
10.015359 0.000000 0.000000
10.015359 -0.000000 0.000000
10.015359 -0.000000 0.000000
10.015359 0.000000 0.000000
10.015359 -0.000000 0.000000
10.015359 -0.000000 0.000000
10.015359 -0.000000 0.000000
10.015359 0.000000 0.000000
10.015359 -0.000000 0.000000
10.015359 -0.000000 0.000000
10.015359 0.000000 0.000000
10.015359 0.000000 0.000000
10.015359 0.000000 0.000000
10.015359 0.000000 0.000000
10.015359 0.000004 0.000000
10.015328 -0.023180 0.000000
9.963297 -0.898102 0.000000
-10.011672 0.004214 0.000000
-10.012058 0.000031 0.000000
-10.012056 -0.000000 0.000000
-10.012056 -0.000000 0.000000
-10.012056 0.000000 0.000000
-10.012056 0.000000 0.000000
-10.012056 -0.000000 0.000000
-10.012056 -0.000000 0.000000
-10.012056 0.000000 0.000000
-10.012056 -0.000000 0.000000
-10.012056 -0.000000 0.000000
-10.012056 0.000000 0.000000
-10.012056 -0.000000 0.000000
-10.012056 -0.000000 0.000000
-10.012056 -0.000000 0.000000
-10.012056 0.000000 0.000000
-10.012056 -0.000000 0.000000
-10.012056 -0.000000 0.000000
-10.012056 0.000000 0.000000
-10.012056 0.000000 0.000000
-10.012056 -0.000000 0.000000
-10.012056 0.000000 0.000000
-10.012056 0.000000 0.000000
-10.012058 -0.000031 0.000000
-10.011672 -0.004214 0.000000
-10.000009 0.003624 0.000000
-10.000011 0.000020 0.000000
-10.000011 -0.000000 0.000000
-10.000011 -0.000000 0.000000
-10.000011 0.000000 0.000000
-10.000011 0.000000 0.000000
-10.000011 -0.000000 0.000000
-10.000011 -0.000000 0.000000
-10.000011 0.000000 0.000000
-10.000011 -0.000000 0.000000
-10.000011 0.000000 0.000000
-10.000011 0.000000 0.000000
-10.000011 -0.000000 0.000000
-10.000011 -0.000000 0.000000
-10.000011 -0.000000 0.000000
-10.000011 0.000000 0.000000
-10.000011 -0.000000 0.000000
-10.000011 -0.000000 0.000000
-10.000011 0.000000 0.000000
-10.000011 0.000000 0.000000
-10.000011 -0.000000 0.000000
-10.000011 0.000000 0.000000
-10.000011 0.000000 0.000000
-10.000011 -0.000020 0.000000
-10.000009 -0.003624 0.000000
-10.000000 0.003623 0.000000
-10.000000 0.000020 0.000000
-10.000000 -0.000000 0.000000
-10.000000 -0.000000 0.000000
-10.000000 0.000000 0.000000
-10.000000 0.000000 0.000000
-10.000000 -0.000000 0.000000
-10.000000 -0.000000 0.000000
-10.000000 0.000000 0.000000
-10.000000 -0.000000 0.000000
-10.000000 -0.000000 0.000000
-10.000000 0.000000 0.000000
-10.000000 -0.000000 0.000000
-10.000000 -0.000000 0.000000
-10.000000 -0.000000 0.000000
-10.000000 0.000000 0.000000
-10.000000 -0.000000 0.000000
-10.000000 -0.000000 0.000000
-10.000000 0.000000 0.000000
-10.000000 0.000000 0.000000
-10.000000 -0.000000 0.000000
-10.000000 0.000000 0.000000
-10.000000 0.000000 0.000000
-10.000000 -0.000020 0.000000
-10.000000 -0.003623 0.000000
-10.000000 0.003623 0.000000
-10.000000 0.000020 0.000000
-10.000000 -0.000000 0.000000
-10.000000 -0.000000 0.000000
-10.000000 0.000000 0.000000
-10.000000 0.000000 0.000000
-10.000000 -0.000000 0.000000
-10.000000 -0.000000 0.000000
-10.000000 0.000000 0.000000
-10.000000 -0.000000 0.000000
-10.000000 -0.000000 0.000000
-10.000000 0.000000 0.000000
-10.000000 -0.000000 0.000000
-10.000000 -0.000000 0.000000
-10.000000 -0.000000 0.000000
-10.000000 0.000000 0.000000
-10.000000 -0.000000 0.000000
-10.000000 -0.000000 0.000000
-10.000000 0.000000 0.000000
-10.000000 0.000000 0.000000
-10.000000 -0.000000 0.000000
-10.000000 0.000000 0.000000
-10.000000 0.000000 0.000000
-10.000000 -0.000020 0.000000
-10.000000 -0.003623 0.000000
-10.000000 0.003623 0.000000
-10.000000 0.000020 0.000000
-10.000000 -0.000000 0.000000
-10.000000 -0.000000 0.000000
-10.000000 0.000000 0.000000
-10.000000 0.000000 0.000000
-10.000000 -0.000000 0.000000
-10.000000 -0.000000 0.000000
-10.000000 0.000000 0.000000
-10.000000 -0.000000 0.000000
-10.000000 0.000000 0.000000
-10.000000 0.000000 0.000000
-10.000000 -0.000000 0.000000
-10.000000 -0.000000 0.000000
-10.000000 -0.000000 0.000000
-10.000000 0.000000 0.000000
-10.000000 -0.000000 0.000000
-10.000000 -0.000000 0.000000
-10.000000 0.000000 0.000000
-10.000000 0.000000 0.000000
-10.000000 -0.000000 0.000000
-10.000000 0.000000 0.000000