# vtk DataFile Version 4.0
hesp visualization file
ASCII
DATASET UNSTRUCTURED_GRID
POINTS 1250 double
33.552134 4.049602 4.000000
30.426093 1.905193 4.000000
34.355845 4.572367 4.000000
32.694659 4.303735 4.000000
32.035432 6.297606 4.000000
30.202635 8.679884 4.000000
31.008336 9.292972 4.000000
30.440361 9.027936 4.000000
30.207510 10.096104 4.000000
30.205906 11.224614 4.000000
30.205902 12.347083 4.000000
30.205902 13.469545 4.000000
30.205902 14.592007 4.000000
30.205902 15.714469 4.000000
30.205902 16.836931 4.000000
30.205906 17.959399 4.000000
30.207496 19.087879 4.000000
30.382525 20.110311 4.000000
31.108111 19.913492 4.000000
30.202415 20.507851 4.000000
32.110731 23.843738 4.000000
31.421323 25.471447 4.000000
33.415148 24.622848 4.000000
30.489311 27.370587 4.000000
33.530797 25.564920 4.000000
30.264235 -7.134174 4.000000
34.449638 1.707581 4.000000
30.748866 -0.180093 4.000000
31.155211 4.929170 4.000000
30.939089 6.342993 4.000000
31.027303 7.067851 4.000000
30.642458 7.598259 4.000000
31.129153 9.885896 4.000000
31.119271 10.116528 4.000000
31.119785 11.224629 4.000000
31.119784 12.347082 4.000000
31.119784 13.469545 4.000000
31.119784 14.592007 4.000000
31.119784 15.714469 4.000000
31.119784 16.836931 4.000000
31.119785 17.959384 4.000000
31.119912 19.072053 4.000000
31.060643 19.319699 4.000000
31.102908 21.077087 4.000000
30.912241 22.395621 4.000000
30.929360 22.899642 4.000000
31.960049 24.491411 4.000000
30.752425 29.361301 4.000000
34.450237 27.475670 4.000000
30.264235 36.318188 4.000000
31.817865 0.184885 4.000000
31.947394 4.055091 4.000000
31.718165 5.069751 4.000000
33.398689 5.461414 4.000000
31.426003 5.528961 4.000000
31.043313 8.905866 4.000000
32.092214 10.668229 4.000000
31.749024 8.065183 4.000000
32.248023 10.101324 4.000000
31.531906 11.224777 4.000000
31.531821 12.347083 4.000000
31.531821 13.469545 4.000000
31.531821 14.592007 4.000000
31.531821 15.714469 4.000000
31.531821 16.836930 4.000000
31.531902 17.959233 4.000000
32.248507 19.082652 4.000000
31.750821 21.118014 4.000000
32.098281 18.529436 4.000000
30.805530 21.542225 4.000000
31.155847 23.706734 4.000000
33.791882 23.682882 4.000000
31.615837 23.465734 4.000000
32.760716 25.347463 4.000000
31.818395 28.998698 4.000000
31.615652 -1.799468 4.000000
30.582100 -3.304245 4.000000
31.841789 2.571699 4.000000
33.223411 3.723459 4.000000
32.233270 4.260925 4.000000
30.476036 6.858576 4.000000
32.891172 8.540794 4.000000
31.826430 9.354792 4.000000
33.652209 10.607980 4.000000
32.445415 11.224126 4.000000
32.445515 12.347080 4.000000
32.445514 13.469545 4.000000
32.445514 14.592007 4.000000
32.445514 15.714469 4.000000
32.445515 16.836933 4.000000
32.445416 17.959873 4.000000
33.638924 18.565161 4.000000
31.826078 19.830435 4.000000
32.889832 20.641213 4.000000
30.893714 21.195318 4.000000
32.678901 24.755161 4.000000
33.357763 24.869257 4.000000
31.798628 26.471106 4.000000
30.582102 32.488258 4.000000
31.615653 30.983481 4.000000
34.250369 3.364072 4.000000
31.118959 3.926364 4.000000
30.510643 1.300290 4.000000
34.316443 5.752845 4.000000
31.690476 7.422298 4.000000
31.732810 7.035942 4.000000
32.198759 7.297241 4.000000
32.752446 8.752315 4.000000
32.213544 9.698813 4.000000
33.210953 11.609475 4.000000
32.858100 12.347057 4.000000
32.858089 13.469544 4.000000
32.858089 14.592007 4.000000
32.858089 15.714469 4.000000
32.858100 16.836953 4.000000
33.236796 17.645217 4.000000
32.190154 19.459488 4.000000
32.748321 20.432014 4.000000
32.294757 21.862210 4.000000
31.954814 21.839824 4.000000
31.759598 22.401730 4.000000
35.375570 24.300344 4.000000
30.510271 27.878933 4.000000
31.106157 25.252397 4.000000
33.363271 25.336176 4.000000
30.816398 -1.484864 4.000000
32.511932 -2.172835 4.000000
35.792950 5.757983 4.000000
31.418347 6.655851 4.000000
34.174951 7.416740 4.000000
32.102519 7.064272 4.000000
33.136891 8.265947 4.000000
33.061737 8.977455 4.000000
33.062234 10.102271 4.000000
33.638681 11.947766 4.000000
33.771592 12.346955 4.000000
33.771615 13.469544 4.000000
33.771615 14.592007 4.000000
33.771615 15.714469 4.000000
33.771580 16.837124 4.000000
33.646981 17.188473 4.000000
33.062234 19.081740 4.000000
33.061755 20.206548 4.000000
33.136979 20.918375 4.000000
31.984922 22.215587 4.000000
34.150618 21.406382 4.000000
31.410044 22.431976 4.000000
36.299426 24.122766 4.000000
32.512078 31.356888 4.000000
30.816396 30.668878 4.000000
31.752114 2.139250 4.000000
36.363157 3.089311 4.000000
31.425513 1.894704 4.000000
33.519487 5.017283 4.000000
31.899619 6.657422 4.000000
33.243018 6.732790 4.000000
34.546030 7.630567 4.000000
34.184834 8.983697 4.000000
34.184780 10.102124 4.000000
34.184760 11.224621 4.000000
34.184671 12.347078 4.000000
34.184676 13.469545 4.000000
34.184676 14.592007 4.000000
34.184676 15.714469 4.000000
34.184670 16.836936 4.000000
34.184760 17.959392 4.000000
34.184780 19.081889 4.000000
34.184834 20.200318 4.000000
34.400692 21.723059 4.000000
33.248644 22.220739 4.000000
32.481802 22.504072 4.000000
33.277187 23.767922 4.000000
30.726791 26.564533 4.000000
36.346436 26.099956 4.000000
31.747056 27.044930 4.000000
37.793618 -4.414773 4.000000
34.876878 3.244214 4.000000
35.827710 2.199968 4.000000
33.470489 6.515930 4.000000
36.148128 5.336615 4.000000
34.363150 6.780488 4.000000
34.961116 8.255011 4.000000
35.097950 8.977080 4.000000
35.098292 10.102178 4.000000
35.098287 11.224621 4.000000
35.098293 12.347083 4.000000
35.098293 13.469545 4.000000
35.098293 14.592007 4.000000
35.098293 15.714469 4.000000
35.098292 16.836931 4.000000
35.098287 17.959392 4.000000
35.098292 19.081835 4.000000
35.097950 20.206934 4.000000
35.008459 20.955875 4.000000
34.363115 22.395421 4.000000
36.021636 23.458864 4.000000
33.440854 22.711460 4.000000
35.826368 26.983256 4.000000
34.423037 24.954672 4.000000
37.793618 33.598787 4.000000
32.549269 3.231095 4.000000
33.184814 1.845387 4.000000
37.023245 2.461545 4.000000
36.993325 5.510540 4.000000
35.090173 6.622289 4.000000
35.583326 6.915046 4.000000
35.514328 7.874549 4.000000
35.699074 9.770565 4.000000
35.511528 10.101858 4.000000
35.511464 11.224620 4.000000
35.511464 12.347083 4.000000
35.511464 13.469545 4.000000
35.511464 14.592007 4.000000
35.511464 15.714469 4.000000
35.511464 16.836931 4.000000
35.511464 17.959393 4.000000
35.511537 19.082168 4.000000
35.711071 19.405105 4.000000
35.516225 21.293223 4.000000
35.579503 22.258488 4.000000
35.099022 22.540848 4.000000
37.037913 23.703303 4.000000
36.986316 26.758029 4.000000
33.184885 27.338330 4.000000
33.001421 26.469074 4.000000
32.063042 1.008677 4.000000
34.633634 -1.645757 4.000000
35.499756 2.800601 4.000000
36.074333 4.513003 4.000000
36.013023 8.432412 4.000000
36.348263 6.472629 4.000000
36.423240 7.780070 4.000000
36.048957 9.372824 4.000000
36.425516 10.102125 4.000000
36.425535 11.224620 4.000000
36.425535 12.347083 4.000000
36.425535 13.469545 4.000000
36.425535 14.592007 4.000000
36.425535 15.714469 4.000000
36.425535 16.836931 4.000000
36.425535 17.959393 4.000000
36.425514 19.081889 4.000000
36.027900 19.824758 4.000000
36.421385 21.416318 4.000000
36.336224 22.743788 4.000000
36.019113 20.747889 4.000000
35.947921 24.778458 4.000000
35.501742 26.381730 4.000000
34.633634 30.829769 4.000000
32.058501 28.168632 4.000000
31.708302 0.657196 4.000000
35.320270 1.749643 4.000000
36.449763 4.908968 4.000000
35.290408 3.421697 4.000000
37.433690 5.312693 4.000000
37.010346 7.089033 4.000000
36.851337 8.364030 4.000000
36.838410 8.979690 4.000000
36.838316 10.102157 4.000000
36.838317 11.224620 4.000000
36.838317 12.347083 4.000000
36.838317 13.469545 4.000000
36.838317 14.592007 4.000000
36.838317 15.714469 4.000000
36.838317 16.836931 4.000000
36.838317 17.959393 4.000000
36.838316 19.081856 4.000000
36.838411 20.204326 4.000000
36.859974 20.808112 4.000000
37.072476 22.044334 4.000000
37.637907 24.033257 4.000000
35.242635 25.558613 4.000000
36.702391 24.079214 4.000000
35.319660 27.435126 4.000000
31.711250 28.540090 4.000000
33.528109 0.547088 4.000000
36.538428 0.811959 4.000000
37.109594 7.718317 4.000000
36.366088 3.681819 4.000000
36.581412 6.160120 4.000000
37.595650 6.410975 4.000000
37.729662 7.801405 4.000000
37.753102 8.979684 4.000000
37.753127 10.102159 4.000000
37.753128 11.224620 4.000000
37.753128 12.347083 4.000000
37.753128 13.469545 4.000000
37.753128 14.592007 4.000000
37.753128 15.714469 4.000000
37.753128 16.836931 4.000000
37.753128 17.959393 4.000000
37.753127 19.081855 4.000000
37.753103 20.204330 4.000000
37.728851 21.384442 4.000000
37.531347 22.795792 4.000000
36.472956 23.138090 4.000000
36.325626 25.527229 4.000000
37.105274 21.467968 4.000000
36.539768 28.377379 4.000000
33.528118 28.636938 4.000000
34.492125 1.129413 4.000000
34.805369 1.674719 4.000000
38.415419 2.673653 4.000000
38.812706 5.392422 4.000000
37.245334 5.621097 4.000000
38.178998 6.863965 4.000000
38.165151 7.857181 4.000000
38.165130 8.979694 4.000000
38.165130 10.102158 4.000000
38.165130 11.224620 4.000000
38.165130 12.347083 4.000000
38.165130 13.469545 4.000000
38.165130 14.592007 4.000000
38.165130 15.714469 4.000000
38.165130 16.836931 4.000000
38.165130 17.959393 4.000000
38.165130 19.081855 4.000000
38.165130 20.204319 4.000000
38.165152 21.326831 4.000000
38.178873 22.320634 4.000000
37.246627 23.563934 4.000000
38.828387 23.756949 4.000000
38.408554 26.499088 4.000000
34.805255 27.511033 4.000000
34.492127 28.054596 4.000000
35.456333 0.593783 4.000000
37.772895 1.351636 4.000000
36.794928 2.979819 4.000000
37.446603 4.423996 4.000000
38.353872 5.677471 4.000000
39.056511 6.650688 4.000000
39.080744 7.857253 4.000000
39.080766 8.979698 4.000000
39.080767 10.102158 4.000000
39.080767 11.224620 4.000000
39.080767 12.347083 4.000000
39.080767 13.469545 4.000000
39.080767 14.592007 4.000000
39.080767 15.714469 4.000000
39.080767 16.836931 4.000000
39.080767 17.959393 4.000000
39.080767 19.081855 4.000000
39.080766 20.204316 4.000000
39.080744 21.326761 4.000000
[...]
POINT_DATA 1250
SCALARS m double
LOOKUP_TABLE default
1.000000
1.000000
1.000000
1.000000
1.000000
1.000000
1.000000
1.000000
1.000000
1.000000
1.000000
1.000000
1.000000
1.000000
1.000000
1.000000
1.000000
1.000000
1.000000
1.000000
1.000000
1.000000
1.000000
1.000000
1.000000
1.000000
1.000000
1.000000
1.000000
1.000000
1.000000
1.000000
1.000000
1.000000
1.000000
1.000000
1.000000
1.000000
1.000000
1.000000
1.000000
1.000000
1.000000
1.000000
1.000000
1.000000
1.000000
1.000000
1.000000
1.000000
1.000000
1.000000
1.000000
1.000000
1.000000
1.000000
1.000000
1.000000
1.000000
1.000000
1.000000
1.000000
1.000000
1.000000
1.000000
1.000000
1.000000
1.000000
1.000000
1.000000
1.000000
1.000000
1.000000
1.000000
1.000000
1.000000
1.000000
1.000000
1.000000
1.000000
1.000000
1.000000
1.000000
1.000000
1.000000
1.000000
1.000000
1.000000
1.000000
1.000000
1.000000
1.000000
1.000000
1.000000
1.000000
1.000000
1.000000
1.000000
1.000000
1.000000
1.000000
1.000000
1.000000
1.000000
1.000000
1.000000
1.000000
1.000000
1.000000
1.000000
1.000000
1.000000
1.000000
1.000000
1.000000
1.000000
1.000000
1.000000
1.000000
1.000000
1.000000
1.000000
1.000000
1.000000
1.000000
1.000000
1.000000
1.000000
1.000000
1.000000
1.000000
1.000000
1.000000
1.000000
1.000000
1.000000
1.000000
1.000000
1.000000
1.000000
1.000000
1.000000
1.000000
1.000000
1.000000
1.000000
1.000000
1.000000
1.000000
1.000000
1.000000
1.000000
1.000000
1.000000
1.000000
1.000000
1.000000
1.000000
1.000000
1.000000
1.000000
1.000000
1.000000
1.000000
1.000000
1.000000
1.000000
1.000000
1.000000
1.000000
1.000000
1.000000
1.000000
1.000000
1.000000
1.000000
1.000000
1.000000
1.000000
1.000000
1.000000
1.000000
1.000000
1.000000
1.000000
1.000000
1.000000
1.000000
1.000000
1.000000
1.000000
1.000000
1.000000
1.000000
1.000000
1.000000
1.000000
1.000000
1.000000
1.000000
1.000000
1.000000
1.000000
1.000000
1.000000
1.000000
1.000000
1.000000
1.000000
1.000000
1.000000
1.000000
1.000000
1.000000
1.000000
1.000000
1.000000
1.000000
1.000000
1.000000
1.000000
1.000000
1.000000
1.000000
1.000000
1.000000
1.000000
1.000000
1.000000
1.000000
1.000000
1.000000
1.000000
1.000000
1.000000
1.000000
1.000000
1.000000
1.000000
1.000000
1.000000
1.000000
1.000000
1.000000
1.000000
1.000000
1.000000
1.000000
1.000000
1.000000
1.000000
1.000000
1.000000
1.000000
1.000000
1.000000
1.000000
1.000000
1.000000
1.000000
1.000000
1.000000
1.000000
1.000000
1.000000
1.000000
1.000000
1.000000
1.000000
1.000000
1.000000
1.000000
1.000000
1.000000
1.000000
1.000000
1.000000
1.000000
1.000000
1.000000
1.000000
1.000000
1.000000
1.000000
1.000000
1.000000
1.000000
1.000000
1.000000
1.000000
1.000000
1.000000
1.000000
1.000000
1.000000
1.000000
1.000000
1.000000
1.000000
1.000000
1.000000
1.000000
1.000000
1.000000
1.000000
1.000000
1.000000
1.000000
1.000000
1.000000
1.000000
1.000000
1.000000
1.000000
1.000000
1.000000
1.000000
1.000000
1.000000
1.000000
1.000000
1.000000
1.000000
1.000000
1.000000
1.000000
1.000000
1.000000
1.000000
1.000000
1.000000
1.000000
1.000000
1.000000
1.000000
1.000000
1.000000
1.000000
1.000000
1.000000
1.000000
1.000000
1.000000
1.000000
1.000000
1.000000
1.000000
1.000000
1.000000
1.000000
1.000000
1.000000
1.000000
1.000000
1.000000
1.000000
1.000000
1.000000
1.000000
1.000000
1.000000
1.000000
1.000000
1.000000
1.000000
1.000000
1.000000
1.000000
1.000000
1.000000
1.000000
1.000000
1.000000
1.000000
1.000000
1.000000
1.000000
1.000000
1.000000
1.000000
1.000000
1.000000
1.000000
1.000000
1.000000
1.000000
1.000000
1.000000
1.000000
1.000000
1.000000
1.000000
1.000000
1.000000
1.000000
1.000000
1.000000
1.000000
1.000000
1.000000
1.000000
1.000000
1.000000
1.000000
1.000000
1.000000
1.000000
1.000000
1.000000
1.000000
1.000000
1.000000
1.000000
1.000000
1.000000
1.000000
1.000000
1.000000
1.000000
1.000000
1.000000
1.000000
1.000000
1.000000
1.000000
1.000000
1.000000
1.000000
1.000000
1.000000
1.000000
1.000000
1.000000
1.000000
1.000000
1.000000
1.000000
1.000000
1.000000
1.000000
1.000000
1.000000
1.000000
1.000000
1.000000
1.000000
1.000000
1.000000
1.000000
1.000000
1.000000
1.000000
1.000000
1.000000
1.000000
1.000000
1.000000
1.000000
1.000000
1.000000
1.000000
1.000000
1.000000
1.000000
1.000000
1.000000
1.000000
1.000000
1.000000
1.000000
1.000000
1.000000
1.000000
1.000000
1.000000
1.000000
1.000000
1.000000
1.000000
1.000000
1.000000
1.000000
1.000000
1.000000
1.000000
1.000000
1.000000
1.000000
1.000000
1.000000
1.000000
1.000000
1.000000
1.000000
1.000000
1.000000
1.000000
1.000000
1.000000
1.000000
1.000000
1.000000
1.000000
1.000000
1.000000
1.000000
1.000000
1.000000
1.000000
1.000000
1.000000
1.000000
1.000000
1.000000
1.000000
1.000000
1.000000
1.000000
1.000000
1.000000
1.000000
1.000000
1.000000
1.000000
1.000000
1.000000
1.000000
1.000000
1.000000
1.000000
1.000000
1.000000
1.000000
1.000000
1.000000
1.000000
1.000000
1.000000
1.000000
1.000000
1.000000
1.000000
1.000000
1.000000
1.000000
1.000000
1.000000
1.000000
1.000000
1.000000
1.000000
1.000000
1.000000
1.000000
1.000000
1.000000
1.000000
1.000000
1.000000
1.000000
1.000000
1.000000
1.000000
1.000000
1.000000
1.000000
1.000000
1.000000
1.000000
1.000000
1.000000
1.000000
1.000000
1.000000
1.000000
1.000000
1.000000
1.000000
1.000000
1.000000
1.000000
1.000000
1.000000
1.000000
1.000000
1.000000
1.000000
1.000000
1.000000
1.000000
1.000000
1.000000
1.000000
1.000000
1.000000
1.000000
1.000000
1.000000
1.000000
1.000000
1.000000
1.000000
1.000000
1.000000
1.000000
1.000000
1.000000
1.000000
1.000000
1.000000
1.000000
1.000000
1.000000
1.000000
1.000000
1.000000
1.000000
1.000000
1.000000
1.000000
1.000000
1.000000
1.000000
1.000000
1.000000
1.000000
1.000000
1.000000
1.000000
1.000000
1.000000
1.000000
1.000000
1.000000
1.000000
1.000000
1.000000
1.000000
1.000000
1.000000
1.000000
1.000000
1.000000
1.000000
1.000000
1.000000
1.000000
1.000000
1.000000
1.000000
1.000000
1.000000
1.000000
1.000000
1.000000
1.000000
1.000000
1.000000
1.000000
1.000000
1.000000
1.000000
1.000000
1.000000
1.000000
1.000000
1.000000
1.000000
1.000000
1.000000
1.000000
1.000000
1.000000
1.000000
1.000000
1.000000
1.000000
1.000000
1.000000
1.000000
1.000000
1.000000
1.000000
1.000000
1.000000
1.000000
1.000000
1.000000
1.000000
1.000000
1.000000
1.000000
1.000000
1.000000
1.000000
1.000000
1.000000
1.000000
1.000000
1.000000
1.000000
1.000000
1.000000
1.000000
1.000000
1.000000
1.000000
1.000000
1.000000
1.000000
1.000000
1.000000
1.000000
1.000000
1.000000
1.000000
1.000000
1.000000
1.000000
1.000000
1.000000
1.000000
1.000000
1.000000
1.000000
1.000000
1.000000
1.000000
1.000000
1.000000
1.000000
1.000000
1.000000
1.000000
1.000000
1.000000
1.000000
1.000000
1.000000
1.000000
1.000000
1.000000
1.000000
1.000000
1.000000
1.000000
1.000000
1.000000
1.000000
1.000000
1.000000
1.000000
1.000000
1.000000
1.000000
1.000000
1.000000
1.000000
1.000000
1.000000
1.000000
1.000000
1.000000
1.000000
1.000000
1.000000
1.000000
1.000000
1.000000
1.000000
1.000000
1.000000
1.000000
1.000000
1.000000
1.000000
1.000000
1.000000
1.000000
1.000000
1.000000
1.000000
1.000000
1.000000
1.000000
1.000000
1.000000
1.000000
1.000000
1.000000
1.000000
1.000000
1.000000
1.000000
1.000000
1.000000
1.000000
1.000000
1.000000
1.000000
1.000000
1.000000
1.000000
1.000000
1.000000
1.000000
1.000000
1.000000
1.000000
1.000000
1.000000
1.000000
1.000000
1.000000
1.000000
1.000000
1.000000
1.000000
1.000000
1.000000
1.000000
1.000000
1.000000
1.000000
1.000000
1.000000
1.000000
1.000000
1.000000
1.000000
1.000000
1.000000
1.000000
1.000000
1.000000
1.000000
1.000000
1.000000
1.000000
1.000000
1.000000
1.000000
1.000000
1.000000
1.000000
1.000000
1.000000
1.000000
1.000000
1.000000
1.000000
1.000000
1.000000
1.000000
1.000000
1.000000
1.000000
1.000000
1.000000
1.000000
1.000000
1.000000
1.000000
1.000000
1.000000
1.000000
1.000000
1.000000
1.000000
1.000000
1.000000
1.000000
1.000000
1.000000
1.000000
1.000000
1.000000
1.000000
1.000000
1.000000
1.000000
1.000000
1.000000
1.000000
1.000000
1.000000
1.000000
1.000000
1.000000
1.000000
1.000000
1.000000
1.000000
1.000000
1.000000
1.000000
1.000000
1.000000
1.000000
1.000000
1.000000
1.000000
1.000000
1.000000
1.000000
1.000000
1.000000
1.000000
1.000000
1.000000
1.000000
1.000000
1.000000
1.000000
1.000000
1.000000
1.000000
1.000000
1.000000
1.000000
1.000000
1.000000
1.000000
1.000000
1.000000
1.000000
1.000000
1.000000
1.000000
1.000000
1.000000
1.000000
1.000000
1.000000
1.000000
1.000000
1.000000
1.000000
1.000000
1.000000
1.000000
1.000000
1.000000
1.000000
1.000000
1.000000
1.000000
1.000000
1.000000
1.000000
1.000000
1.000000
1.000000
1.000000
1.000000
1.000000
1.000000
1.000000
1.000000
1.000000
1.000000
1.000000
1.000000
1.000000
1.000000
1.000000
1.000000
1.000000
1.000000
1.000000
1.000000
1.000000
1.000000
1.000000
1.000000
1.000000
1.000000
1.000000
1.000000
1.000000
1.000000
1.000000
1.000000
1.000000
1.000000
1.000000
1.000000
1.000000
1.000000
1.000000
1.000000
1.000000
1.000000
1.000000
1.000000
1.000000
1.000000
1.000000
1.000000
1.000000
1.000000
1.000000
1.000000
1.000000
1.000000
1.000000
1.000000
1.000000
1.000000
1.000000
1.000000
1.000000
1.000000
1.000000
1.000000
1.000000
1.000000
1.000000
1.000000
1.000000
1.000000
1.000000
1.000000
1.000000
1.000000
1.000000
1.000000
1.000000
1.000000
1.000000
1.000000
1.000000
1.000000
1.000000
1.000000
1.000000
1.000000
1.000000
1.000000
1.000000
1.000000
1.000000
1.000000
1.000000
1.000000
1.000000
1.000000
1.000000
1.000000
1.000000
1.000000
1.000000
1.000000
1.000000
1.000000
1.000000
1.000000
1.000000
1.000000
1.000000
1.000000
1.000000
1.000000
1.000000
1.000000
1.000000
1.000000
1.000000
1.000000
1.000000
1.000000
1.000000
1.000000
1.000000
1.000000
1.000000
1.000000
1.000000
1.000000
1.000000
1.000000
1.000000
1.000000
1.000000
1.000000
1.000000
1.000000
1.000000
1.000000
1.000000
1.000000
1.000000
1.000000
1.000000
1.000000
1.000000
1.000000
1.000000
1.000000
1.000000
1.000000
1.000000
1.000000
1.000000
1.000000
1.000000
1.000000
1.000000
1.000000
1.000000
1.000000
1.000000
1.000000
1.000000
1.000000
1.000000
1.000000
1.000000
1.000000
1.000000
1.000000
1.000000
1.000000
1.000000
1.000000
1.000000
1.000000
1.000000
1.000000
1.000000
1.000000
1.000000
1.000000
1.000000
1.000000
1.000000
1.000000
1.000000
1.000000
1.000000
1.000000
1.000000
1.000000
1.000000
1.000000
1.000000
1.000000
1.000000
1.000000
1.000000
1.000000
1.000000
1.000000
1.000000
1.000000
1.000000
1.000000
1.000000
1.000000
1.000000
1.000000
1.000000
1.000000
1.000000
1.000000
1.000000
1.000000
1.000000
1.000000
1.000000
1.000000
1.000000
1.000000
1.000000
1.000000
1.000000
1.000000
1.000000
1.000000
1.000000
1.000000
1.000000
1.000000
1.000000
1.000000
1.000000
1.000000
1.000000
1.000000
1.000000
1.000000
1.000000
1.000000
1.000000
1.000000
1.000000
1.000000
1.000000
1.000000
1.000000
1.000000
1.000000
1.000000
1.000000
1.000000
1.000000
1.000000
1.000000
1.000000
1.000000
1.000000
1.000000
1.000000
1.000000
1.000000
1.000000
1.000000
1.000000
1.000000
1.000000
1.000000
1.000000
1.000000
1.000000
1.000000
1.000000
1.000000
1.000000
1.000000
1.000000
1.000000
1.000000
1.000000
1.000000
1.000000
1.000000
1.000000
1.000000
1.000000
1.000000
1.000000
1.000000
1.000000
1.000000
1.000000
1.000000
1.000000
1.000000
1.000000
1.000000
VECTORS v double
-7.509000 5.397112 0.000000
6.482769 -7.947496 0.000000
13.922793 3.002281 0.000000
14.281445 2.375554 0.000000
5.619129 6.898781 0.000000
2.335087 9.146777 0.000000
3.922948 2.339558 0.000000
0.189821 0.949491 0.000000
-10.010169 -0.172305 0.000000
-10.028834 -0.000182 0.000000
-10.028890 0.000002 0.000000
-10.028891 -0.000000 0.000000
-10.028891 0.000000 0.000000
-10.028891 0.000000 0.000000
-10.028890 -0.000002 0.000000
-10.028835 0.000184 0.000000
-10.010233 0.171553 0.000000
-0.785852 -1.857649 0.000000
7.085814 -2.235480 0.000000
2.332228 -9.084690 0.000000
6.803838 5.427283 0.000000
-7.241731 8.080054 0.000000
1.051483 0.790436 0.000000
6.571435 8.639401 0.000000
-9.314505 3.670832 0.000000
-2.655446 -13.726701 0.000000
-9.523415 3.355892 0.000000
5.428430 -9.790741 0.000000
-7.850396 6.643047 0.000000
-7.606611 -6.418316 0.000000
-4.816420 2.287752 0.000000
-9.778382 -2.167488 0.000000
3.909191 12.358890 0.000000
9.633256 6.027992 0.000000
10.026518 0.000181 0.000000
10.026487 -0.000004 0.000000
10.026487 -0.000000 0.000000
10.026487 0.000000 0.000000
10.026487 0.000000 0.000000
10.026487 0.000004 0.000000
10.026514 -0.000188 0.000000
10.272448 -1.527723 0.000000
0.865612 -16.101538 0.000000
7.828363 -11.480535 0.000000
-4.142921 10.076104 0.000000
-7.147230 7.312714 0.000000
0.019996 -2.456277 0.000000
5.439357 9.782239 0.000000
-9.491572 -3.439691 0.000000
-2.655446 13.726701 0.000000
0.196005 -9.235623 0.000000
-2.139776 0.929099 0.000000
1.362226 -6.340139 0.000000
-3.905249 9.572417 0.000000
10.029696 -0.291846 0.000000
2.651240 12.927378 0.000000
-1.429041 7.226183 0.000000
4.100133 -10.112817 0.000000
10.200228 -0.012661 0.000000
-10.028121 0.003628 0.000000
-10.030681 0.000009 0.000000
-10.030692 0.000000 0.000000
-10.030692 0.000000 0.000000
-10.030692 -0.000000 0.000000
-10.030682 -0.000010 0.000000
-10.028315 -0.003818 0.000000
10.213752 0.004455 0.000000
4.116738 10.107130 0.000000
-1.377898 -7.078984 0.000000
-5.485099 -6.161570 0.000000
-1.576823 2.550813 0.000000
8.171337 -12.653689 0.000000
8.797755 -5.992477 0.000000
8.942397 -4.732641 0.000000
0.203885 9.219314 0.000000
-0.498656 -3.681698 0.000000
6.835178 -10.619270 0.000000
-4.773651 -5.510369 0.000000
6.019653 -2.142121 0.000000
2.545941 -10.170169 0.000000
10.435811 -5.048207 0.000000
9.425365 2.339767 0.000000
-8.452084 5.169537 0.000000
8.363653 -11.764709 0.000000
9.998223 -0.015619 0.000000
10.024433 -0.000087 0.000000
10.024339 -0.000003 0.000000
10.024337 0.000000 0.000000
10.024339 0.000003 0.000000
10.024409 0.000064 0.000000
9.998478 0.014942 0.000000
7.866458 11.435101 0.000000
-8.453578 -5.163547 0.000000
9.341129 -2.687013 0.000000
4.568416 -1.836328 0.000000
12.696895 6.474679 0.000000
5.259820 3.816312 0.000000
-4.999894 4.830410 0.000000
6.835183 10.619270 0.000000
-0.498657 3.681699 0.000000
0.352765 -7.085605 0.000000
8.202722 4.306282 0.000000
8.756949 -4.902933 0.000000
8.789314 9.308196 0.000000
-6.192572 8.030463 0.000000
-12.079385 5.633487 0.000000
-5.574688 -5.842156 0.000000
0.216834 2.187451 0.000000
-6.866397 -4.657521 0.000000
0.726338 9.427313 0.000000
-10.030328 -0.001780 0.000000
-10.031373 -0.000008 0.000000
-10.031375 -0.000000 0.000000
-10.031373 0.000008 0.000000
-10.030301 0.001479 0.000000
1.384516 -7.770542 0.000000
-7.147070 4.347777 0.000000
0.251572 -1.854747 0.000000
4.171390 4.843139 0.000000
-8.983931 -3.657638 0.000000
-3.604515 -2.565954 0.000000
10.951184 -2.472581 0.000000
8.758409 4.859033 0.000000
8.180533 -4.306823 0.000000
-2.977634 8.719529 0.000000
-1.121303 -6.328086 0.000000
-1.995052 -10.927034 0.000000
5.672658 9.600248 0.000000
-9.508424 3.316209 0.000000
-6.810970 -4.976013 0.000000
1.947063 3.035376 0.000000
-9.165330 4.629325 0.000000
-10.075082 -0.073383 0.000000
-10.006578 0.003846 0.000000
5.406042 19.088048 0.000000
10.016932 -0.025608 0.000000
10.023233 -0.000011 0.000000
10.023234 -0.000000 0.000000
10.023233 0.000013 0.000000
10.012800 0.041377 0.000000
5.495431 -20.259452 0.000000
-10.006583 -0.003933 0.000000
-10.073121 0.071993 0.000000
-9.162633 -4.624313 0.000000
-14.193369 -6.577708 0.000000
-1.469867 -4.766657 0.000000
-8.756729 -9.720411 0.000000
6.029076 6.422752 0.000000
-1.994614 10.927159 0.000000
-1.121306 6.328089 0.000000
-1.881231 9.495521 0.000000
1.742934 3.550051 0.000000
-3.751777 -9.028875 0.000000
4.397283 -2.376147 0.000000
-12.270578 7.626100 0.000000
-11.633567 2.359112 0.000000
2.360998 -1.932304 0.000000
-10.004969 0.091241 0.000000
-10.006580 -0.000300 0.000000
-10.007740 0.000013 0.000000
-10.031891 -0.000756 0.000000
-10.030910 -0.000006 0.000000
-10.030907 -0.000000 0.000000
-10.030910 0.000007 0.000000
-10.032256 0.000962 0.000000
-10.007697 0.000008 0.000000
-10.006515 0.000357 0.000000
-10.005003 -0.091205 0.000000
-4.396481 8.955525 0.000000
-10.284509 -7.235004 0.000000
-4.425047 -3.854872 0.000000
2.520811 -9.867386 0.000000
-8.904744 3.268078 0.000000
1.520131 -3.467667 0.000000
-2.361070 -9.496274 0.000000
4.837053 -9.997753 0.000000
7.279785 -8.872341 0.000000
1.728715 -3.455763 0.000000
-3.171756 3.846154 0.000000
-8.709326 1.505997 0.000000
-10.167390 0.434519 0.000000
7.774223 12.197528 0.000000
9.997805 -0.074996 0.000000
10.024687 -0.000046 0.000000
10.023379 0.000017 0.000000
10.023458 -0.000003 0.000000
10.023480 -0.000001 0.000000
10.023481 -0.000000 0.000000
10.023480 0.000002 0.000000
10.023456 0.000003 0.000000
10.023374 -0.000019 0.000000
10.024645 0.000001 0.000000
9.997874 0.074925 0.000000
8.276375 -10.801892 0.000000
-10.165495 -0.523107 0.000000
-6.970695 -11.152611 0.000000
-4.813962 0.030484 0.000000
1.725415 3.452170 0.000000
4.892072 -5.913463 0.000000
4.837053 9.997753 0.000000
-3.051393 -4.484917 0.000000
-9.857606 -1.596729 0.000000
6.069608 -7.129422 0.000000
6.767685 2.747463 0.000000
-7.813433 6.921248 0.000000
-8.221470 5.061243 0.000000
-9.933010 0.848851 0.000000
-1.474599 17.446262 0.000000
-10.011889 -0.050462 0.000000
-10.029622 -0.000015 0.000000
-10.029626 0.000000 0.000000
-10.029625 -0.000000 0.000000
-10.029625 -0.000000 0.000000
-10.029625 0.000000 0.000000
-10.029626 -0.000000 0.000000
-10.029622 0.000015 0.000000
-10.009930 0.051742 0.000000
-1.196799 -17.605798 0.000000
-9.885459 -1.228649 0.000000
-8.083806 -5.386940 0.000000
-7.709841 -7.153539 0.000000
8.144708 -1.860427 0.000000
6.088024 7.227247 0.000000
-9.857486 1.595083 0.000000
0.437989 8.115538 0.000000
1.512582 -1.190971 0.000000
-3.933253 -8.257644 0.000000
2.690653 -3.383554 0.000000
0.643232 -0.142035 0.000000
1.544851 -10.033210 0.000000
8.206905 -6.162365 0.000000
9.939127 -1.509363 0.000000
-1.337072 10.398660 0.000000
10.022982 -0.002298 0.000000
10.024782 -0.000011 0.000000
10.024786 0.000000 0.000000
10.024786 0.000000 0.000000
10.024786 -0.000000 0.000000
10.024786 -0.000000 0.000000
10.024786 -0.000000 0.000000
10.024782 0.000011 0.000000
10.022861 0.002304 0.000000
-1.826018 -10.124956 0.000000
9.891411 1.844936 0.000000
7.889631 6.757038 0.000000
1.759597 9.933071 0.000000
-0.137660 1.035335 0.000000
2.702847 3.382962 0.000000
-3.933251 8.257639 0.000000
1.381481 0.807017 0.000000
-11.659751 -4.347924 0.000000
-9.996422 -1.059904 0.000000
-1.299801 -8.173165 0.000000
-7.158515 -8.189639 0.000000
9.142908 1.084612 0.000000
-5.570284 8.578607 0.000000
-9.648860 15.923247 0.000000
-10.003969 -0.002698 0.000000
-10.028150 -0.000065 0.000000
-10.028050 -0.000003 0.000000
-10.028047 0.000000 0.000000
-10.028047 0.000000 0.000000
-10.028047 -0.000000 0.000000
-10.028047 -0.000000 0.000000
-10.028047 -0.000000 0.000000
-10.028050 0.000003 0.000000
-10.028145 0.000057 0.000000
-10.003878 0.003091 0.000000
-9.370643 -16.049668 0.000000
-3.917835 -9.646093 0.000000
11.218134 1.990596 0.000000
-7.690517 6.509001 0.000000
-0.723057 -0.416810 0.000000
-10.000849 1.065901 0.000000
-11.559266 4.780232 0.000000
-7.980571 -7.190933 0.000000
-9.767169 -5.481060 0.000000
-0.919230 1.758953 0.000000
-10.815951 0.049872 0.000000
-0.234740 11.063326 0.000000
5.691864 -8.177648 0.000000
9.617680 -1.611364 0.000000
10.026005 -0.000458 0.000000
10.026493 0.000007 0.000000
10.026506 0.000000 0.000000
10.026506 0.000000 0.000000
10.026506 0.000000 0.000000
10.026506 -0.000000 0.000000
10.026506 -0.000000 0.000000
10.026506 -0.000000 0.000000
10.026506 -0.000000 0.000000
10.026493 -0.000007 0.000000
10.025996 0.000481 0.000000
9.606073 1.665370 0.000000
4.016018 8.928393 0.000000
-2.343494 -8.895616 0.000000
-11.263635 0.273318 0.000000
-1.067134 -1.657461 0.000000
-9.743199 5.559153 0.000000
-7.980450 7.191090 0.000000
-10.004216 0.071646 0.000000
6.673175 -2.261911 0.000000
3.585380 1.377965 0.000000
4.634452 2.182582 0.000000