# vtk DataFile Version 4.0
hesp visualization file
ASCII
DATASET UNSTRUCTURED_GRID
POINTS 1250 double
34.574958 1.883927 4.000000
30.203953 0.060111 4.000000
34.641194 4.929997 4.000000
33.279620 7.623725 4.000000
31.705432 5.247033 4.000000
30.636772 11.339337 4.000000
32.946827 11.802790 4.000000
31.767366 11.484098 4.000000
30.119521 12.960404 4.000000
32.336576 11.548927 4.000000
31.483031 12.464972 4.000000
30.826520 13.637415 4.000000
30.845448 14.591155 4.000000
30.823421 15.525435 4.000000
31.756407 16.901087 4.000000
29.793451 17.073386 4.000000
31.211963 19.600847 4.000000
30.539238 17.405913 4.000000
30.013998 21.447544 4.000000
30.452716 19.129017 4.000000
33.743402 23.861345 4.000000
31.400489 28.300626 4.000000
34.034905 23.769894 4.000000
32.556353 30.104129 4.000000
31.731740 27.878578 4.000000
30.943011 -12.075787 4.000000
33.081291 0.327992 4.000000
32.700217 -3.673776 4.000000
30.456891 3.146624 4.000000
30.180624 7.020189 4.000000
30.615664 6.691928 4.000000
30.187785 7.993781 4.000000
31.385285 11.793002 4.000000
32.864365 13.337529 4.000000
31.129458 11.964443 4.000000
31.140504 13.154999 4.000000
31.815655 12.954684 4.000000
31.949864 14.621253 4.000000
31.865790 16.035767 4.000000
32.461527 16.161999 4.000000
31.168157 17.428209 4.000000
32.837742 17.472261 4.000000
32.473603 16.839018 4.000000
31.810625 19.119322 4.000000
30.921977 23.992443 4.000000
31.191349 25.646652 4.000000
31.821974 23.583044 4.000000
32.708763 32.850542 4.000000
31.664901 26.300596 4.000000
30.943011 41.259800 4.000000
31.869281 -3.178652 4.000000
33.861630 3.353372 4.000000
33.180213 3.229314 4.000000
30.748457 8.346758 4.000000
34.956780 5.062423 4.000000
30.926700 9.016447 4.000000
33.190461 9.930625 4.000000
30.312329 5.856949 4.000000
30.187688 9.731946 4.000000
33.752034 12.335281 4.000000
33.853691 12.835108 4.000000
30.508652 14.195088 4.000000
33.381221 14.164868 4.000000
33.221890 14.847599 4.000000
31.952886 15.584195 4.000000
32.752010 17.956382 4.000000
31.007484 19.216119 4.000000
32.418733 20.709963 4.000000
33.993449 18.127541 4.000000
31.392203 18.366882 4.000000
31.514943 25.625649 4.000000
33.372088 19.937183 4.000000
31.720011 22.303874 4.000000
33.861484 26.325438 4.000000
31.871200 32.355518 4.000000
31.454607 -3.106625 4.000000
33.042760 -7.126987 4.000000
31.578014 4.830297 4.000000
35.412280 2.956404 4.000000
31.006725 3.143888 4.000000
32.334959 4.287655 4.000000
30.596959 9.699953 4.000000
31.377699 10.173019 4.000000
34.246930 10.741026 4.000000
33.666641 9.334438 4.000000
34.915657 14.421255 4.000000
33.517580 14.873020 4.000000
34.082408 14.578648 4.000000
32.088818 15.890933 4.000000
34.479411 14.421689 4.000000
31.947872 17.544063 4.000000
35.076992 18.537656 4.000000
30.869981 16.571965 4.000000
30.262342 20.809135 4.000000
29.979902 19.822584 4.000000
36.114477 25.314308 4.000000
34.870734 27.456011 4.000000
30.642837 25.021468 4.000000
33.042764 36.311000 4.000000
31.452972 32.291894 4.000000
33.363942 2.074206 4.000000
30.298828 4.616150 4.000000
32.242031 -3.113829 4.000000
34.606291 7.053592 4.000000
30.420157 9.237585 4.000000
30.567384 10.095615 4.000000
32.759627 8.030929 4.000000
30.566071 8.698579 4.000000
32.765125 8.417244 4.000000
32.061079 11.696651 4.000000
31.209571 14.261127 4.000000
34.637156 12.116211 4.000000
34.612181 16.717632 4.000000
33.409590 15.068895 4.000000
31.733234 14.110931 4.000000
33.768506 14.813659 4.000000
32.003553 20.363119 4.000000
31.483446 19.352022 4.000000
32.293352 23.716130 4.000000
31.571863 21.337536 4.000000
30.559438 22.401858 4.000000
35.029106 24.394273 4.000000
33.969779 30.041551 4.000000
33.633900 25.433994 4.000000
31.290912 27.883929 4.000000
30.415199 -3.762965 4.000000
31.793411 -6.106540 4.000000
36.872718 6.881993 4.000000
31.057857 6.026252 4.000000
31.837403 6.962863 4.000000
30.773142 5.628548 4.000000
30.681431 7.857676 4.000000
32.316325 10.972644 4.000000
32.502420 10.781526 4.000000
34.838746 11.653800 4.000000
31.149883 13.411148 4.000000
34.773343 14.078849 4.000000
32.907498 13.597551 4.000000
33.890162 17.032173 4.000000
34.757483 12.411870 4.000000
34.756947 15.978268 4.000000
33.020523 18.391963 4.000000
33.777578 21.419051 4.000000
31.368811 20.587766 4.000000
29.935881 22.349808 4.000000
33.535498 19.186187 4.000000
31.053394 18.708739 4.000000
38.004253 24.649070 4.000000
31.793715 35.290638 4.000000
30.415192 32.946987 4.000000
30.294800 0.397652 4.000000
36.605237 0.809441 4.000000
32.301446 -0.640064 4.000000
34.060598 3.685786 4.000000
31.309517 11.230449 4.000000
31.472740 7.194551 4.000000
35.251859 9.144823 4.000000
35.808505 11.082182 4.000000
31.730944 7.829434 4.000000
32.892805 12.878479 4.000000
31.815747 11.988854 4.000000
35.096238 14.216767 4.000000
33.510404 13.635285 4.000000
32.615248 14.468849 4.000000
33.135814 20.129463 4.000000
31.384719 17.629913 4.000000
32.081572 23.397425 4.000000
35.309255 21.415539 4.000000
33.162536 23.275007 4.000000
30.795711 22.204365 4.000000
31.845450 23.949893 4.000000
34.232794 20.264888 4.000000
31.235264 25.893304 4.000000
34.479004 27.077473 4.000000
31.261789 28.995090 4.000000
39.534957 -8.013964 4.000000
34.076749 0.261132 4.000000
38.561883 1.650995 4.000000
31.739676 7.221727 4.000000
33.078704 6.157260 4.000000
32.587361 5.431536 4.000000
34.398436 11.305495 4.000000
37.608693 9.213334 4.000000
31.608560 9.899495 4.000000
33.329973 12.342035 4.000000
33.471355 12.072335 4.000000
34.948547 12.643749 4.000000
35.381468 15.902323 4.000000
34.853491 17.308429 4.000000
37.575111 17.216645 4.000000
33.831609 17.403079 4.000000
34.942523 19.662191 4.000000
37.271951 19.146034 4.000000
35.844914 18.475043 4.000000
32.021118 21.193576 4.000000
35.118758 19.440349 4.000000
34.769430 22.186373 4.000000
35.651606 29.402697 4.000000
34.828441 21.766984 4.000000
39.534957 37.197978 4.000000
31.481472 1.650663 4.000000
30.588807 1.248751 4.000000
35.615108 -1.581174 4.000000
37.515213 7.007249 4.000000
32.696198 7.643611 4.000000
35.282411 6.456145 4.000000
32.187104 10.621101 4.000000
36.837288 10.243894 4.000000
35.281516 10.364155 4.000000
35.058565 10.748720 4.000000
35.616328 11.524510 4.000000
35.735483 14.629056 4.000000
35.568841 14.035915 4.000000
34.192032 15.519727 4.000000
33.625149 17.562699 4.000000
35.216619 18.146365 4.000000
34.650295 18.106689 4.000000
35.821440 17.894221 4.000000
32.010670 19.595424 4.000000
32.500698 20.346641 4.000000
33.462870 20.981935 4.000000
36.069486 26.046852 4.000000
37.389151 30.550496 4.000000
30.662114 28.960634 4.000000
33.162873 29.393113 4.000000
32.611253 0.623039 4.000000
33.217651 -4.618505 4.000000
34.502490 1.050912 4.000000
35.058907 4.115622 4.000000
33.949781 9.704374 4.000000
34.176668 5.301805 4.000000
37.473852 8.846043 4.000000
36.446922 10.990384 4.000000
35.010127 13.059645 4.000000
37.461425 12.648480 4.000000
35.520184 13.818518 4.000000
36.422648 13.707142 4.000000
35.829502 15.614079 4.000000
37.185818 15.963682 4.000000
35.142971 16.696666 4.000000
36.661136 14.912609 4.000000
36.469887 16.551630 4.000000
32.772658 19.958365 4.000000
34.549958 20.567694 4.000000
36.195373 23.304098 4.000000
35.838588 23.149136 4.000000
35.650455 25.275734 4.000000
34.441418 28.146557 4.000000
33.217652 33.802515 4.000000
32.606218 28.598171 4.000000
32.689111 -1.002366 4.000000
35.819141 0.029526 4.000000
36.608707 2.884837 4.000000
34.355655 2.729975 4.000000
37.195231 5.063319 4.000000
37.853018 8.768631 4.000000
34.037070 8.045540 4.000000
35.295008 12.177928 4.000000
35.443544 9.264746 4.000000
37.480156 14.702454 4.000000
35.424851 12.699279 4.000000
36.008007 13.301166 4.000000
37.420099 13.072740 4.000000
36.618360 14.412970 4.000000
36.684637 17.838366 4.000000
37.730861 15.130618 4.000000
35.609477 18.276020 4.000000
35.452608 16.350500 4.000000
33.613791 20.387724 4.000000
35.783609 20.429196 4.000000
39.580684 22.721499 4.000000
32.474823 27.894501 4.000000
35.383453 23.540416 4.000000
34.644306 25.371875 4.000000
31.374327 29.717581 4.000000
30.654964 -2.039714 4.000000
33.071703 -1.138076 4.000000
38.111806 10.318563 4.000000
33.655077 3.003065 4.000000
38.014170 7.242760 4.000000
38.360678 8.046781 4.000000
37.121152 8.961327 4.000000
36.060298 7.823832 4.000000
35.995643 9.544602 4.000000
36.144656 11.339186 4.000000
38.432250 13.238413 4.000000
38.495339 13.583785 4.000000
37.923788 15.579759 4.000000
36.198011 15.708046 4.000000
36.459135 15.935326 4.000000
35.154613 17.703178 4.000000
37.214898 17.883732 4.000000
37.498394 19.724354 4.000000
38.984259 20.725351 4.000000
36.680806 23.833448 4.000000
36.248898 25.653922 4.000000
33.778073 26.919019 4.000000
37.998109 20.288899 4.000000
33.142481 30.338359 4.000000
30.654450 31.226305 4.000000
30.886317 1.119241 4.000000
32.779838 -1.346319 4.000000
39.722283 3.114503 4.000000
40.512065 5.315272 4.000000
39.177245 5.957125 4.000000
35.660239 6.288473 4.000000
37.159401 9.614820 4.000000
35.487723 8.981475 4.000000
37.519294 12.101875 4.000000
37.185433 11.457567 4.000000
38.389144 10.763276 4.000000
38.058841 13.469291 4.000000
38.246972 15.435679 4.000000
38.490242 15.276439 4.000000
38.333401 18.449256 4.000000
36.391454 17.980914 4.000000
36.303530 18.936288 4.000000
37.164885 19.965233 4.000000
37.723387 19.558753 4.000000
36.441584 24.300755 4.000000
38.300959 21.797239 4.000000
36.058638 21.572065 4.000000
38.129875 28.529899 4.000000
32.791437 30.589090 4.000000
30.725960 29.402137 4.000000
33.084407 -0.129464 4.000000
35.295288 1.990870 4.000000
34.826790 -0.000813 4.000000
35.854682 4.288768 4.000000
36.871950 4.558424 4.000000
39.007986 5.626951 4.000000
37.720096 7.185252 4.000000
38.130216 8.808717 4.000000
37.749211 10.028117 4.000000
37.851483 11.139348 4.000000
37.737145 12.241702 4.000000
40.146176 12.654460 4.000000
38.444200 14.592102 4.000000
38.732715 15.928633 4.000000
40.574429 16.210409 4.000000
37.351867 18.222113 4.000000
40.004579 18.259971 4.000000
36.800135 18.648528 4.000000
37.776949 20.577729 4.000000
[...]
POINT_DATA 1250
SCALARS m double
LOOKUP_TABLE default
1.000000
1.000000
1.000000
1.000000
1.000000
1.000000
1.000000
1.000000
1.000000
1.000000
1.000000
1.000000
1.000000
1.000000
1.000000
1.000000
1.000000
1.000000
1.000000
1.000000
1.000000
1.000000
1.000000
1.000000
1.000000
1.000000
1.000000
1.000000
1.000000
1.000000
1.000000
1.000000
1.000000
1.000000
1.000000
1.000000
1.000000
1.000000
1.000000
1.000000
1.000000
1.000000
1.000000
1.000000
1.000000
1.000000
1.000000
1.000000
1.000000
1.000000
1.000000
1.000000
1.000000
1.000000
1.000000
1.000000
1.000000
1.000000
1.000000
1.000000
1.000000
1.000000
1.000000
1.000000
1.000000
1.000000
1.000000
1.000000
1.000000
1.000000
1.000000
1.000000
1.000000
1.000000
1.000000
1.000000
1.000000
1.000000
1.000000
1.000000
1.000000
1.000000
1.000000
1.000000
1.000000
1.000000
1.000000
1.000000
1.000000
1.000000
1.000000
1.000000
1.000000
1.000000
1.000000
1.000000
1.000000
1.000000
1.000000
1.000000
1.000000
1.000000
1.000000
1.000000
1.000000
1.000000
1.000000
1.000000
1.000000
1.000000
1.000000
1.000000
1.000000
1.000000
1.000000
1.000000
1.000000
1.000000
1.000000
1.000000
1.000000
1.000000
1.000000
1.000000
1.000000
1.000000
1.000000
1.000000
1.000000
1.000000
1.000000
1.000000
1.000000
1.000000
1.000000
1.000000
1.000000
1.000000
1.000000
1.000000
1.000000
1.000000
1.000000
1.000000
1.000000
1.000000
1.000000
1.000000
1.000000
1.000000
1.000000
1.000000
1.000000
1.000000
1.000000
1.000000
1.000000
1.000000
1.000000
1.000000
1.000000
1.000000
1.000000
1.000000
1.000000
1.000000
1.000000
1.000000
1.000000
1.000000
1.000000
1.000000
1.000000
1.000000
1.000000
1.000000
1.000000
1.000000
1.000000
1.000000
1.000000
1.000000
1.000000
1.000000
1.000000
1.000000
1.000000
1.000000
1.000000
1.000000
1.000000
1.000000
1.000000
1.000000
1.000000
1.000000
1.000000
1.000000
1.000000
1.000000
1.000000
1.000000
1.000000
1.000000
1.000000
1.000000
1.000000
1.000000
1.000000
1.000000
1.000000
1.000000
1.000000
1.000000
1.000000
1.000000
1.000000
1.000000
1.000000
1.000000
1.000000
1.000000
1.000000
1.000000
1.000000
1.000000
1.000000
1.000000
1.000000
1.000000
1.000000
1.000000
1.000000
1.000000
1.000000
1.000000
1.000000
1.000000
1.000000
1.000000
1.000000
1.000000
1.000000
1.000000
1.000000
1.000000
1.000000
1.000000
1.000000
1.000000
1.000000
1.000000
1.000000
1.000000
1.000000
1.000000
1.000000
1.000000
1.000000
1.000000
1.000000
1.000000
1.000000
1.000000
1.000000
1.000000
1.000000
1.000000
1.000000
1.000000
1.000000
1.000000
1.000000
1.000000
1.000000
1.000000
1.000000
1.000000
1.000000
1.000000
1.000000
1.000000
1.000000
1.000000
1.000000
1.000000
1.000000
1.000000
1.000000
1.000000
1.000000
1.000000
1.000000
1.000000
1.000000
1.000000
1.000000
1.000000
1.000000
1.000000
1.000000
1.000000
1.000000
1.000000
1.000000
1.000000
1.000000
1.000000
1.000000
1.000000
1.000000
1.000000
1.000000
1.000000
1.000000
1.000000
1.000000
1.000000
1.000000
1.000000
1.000000
1.000000
1.000000
1.000000
1.000000
1.000000
1.000000
1.000000
1.000000
1.000000
1.000000
1.000000
1.000000
1.000000
1.000000
1.000000
1.000000
1.000000
1.000000
1.000000
1.000000
1.000000
1.000000
1.000000
1.000000
1.000000
1.000000
1.000000
1.000000
1.000000
1.000000
1.000000
1.000000
1.000000
1.000000
1.000000
1.000000
1.000000
1.000000
1.000000
1.000000
1.000000
1.000000
1.000000
1.000000
1.000000
1.000000
1.000000
1.000000
1.000000
1.000000
1.000000
1.000000
1.000000
1.000000
1.000000
1.000000
1.000000
1.000000
1.000000
1.000000
1.000000
1.000000
1.000000
1.000000
1.000000
1.000000
1.000000
1.000000
1.000000
1.000000
1.000000
1.000000
1.000000
1.000000
1.000000
1.000000
1.000000
1.000000
1.000000
1.000000
1.000000
1.000000
1.000000
1.000000
1.000000
1.000000
1.000000
1.000000
1.000000
1.000000
1.000000
1.000000
1.000000
1.000000
1.000000
1.000000
1.000000
1.000000
1.000000
1.000000
1.000000
1.000000
1.000000
1.000000
1.000000
1.000000
1.000000
1.000000
1.000000
1.000000
1.000000
1.000000
1.000000
1.000000
1.000000
1.000000
1.000000
1.000000
1.000000
1.000000
1.000000
1.000000
1.000000
1.000000
1.000000
1.000000
1.000000
1.000000
1.000000
1.000000
1.000000
1.000000
1.000000
1.000000
1.000000
1.000000
1.000000
1.000000
1.000000
1.000000
1.000000
1.000000
1.000000
1.000000
1.000000
1.000000
1.000000
1.000000
1.000000
1.000000
1.000000
1.000000
1.000000
1.000000
1.000000
1.000000
1.000000
1.000000
1.000000
1.000000
1.000000
1.000000
1.000000
1.000000
1.000000
1.000000
1.000000
1.000000
1.000000
1.000000
1.000000
1.000000
1.000000
1.000000
1.000000
1.000000
1.000000
1.000000
1.000000
1.000000
1.000000
1.000000
1.000000
1.000000
1.000000
1.000000
1.000000
1.000000
1.000000
1.000000
1.000000
1.000000
1.000000
1.000000
1.000000
1.000000
1.000000
1.000000
1.000000
1.000000
1.000000
1.000000
1.000000
1.000000
1.000000
1.000000
1.000000
1.000000
1.000000
1.000000
1.000000
1.000000
1.000000
1.000000
1.000000
1.000000
1.000000
1.000000
1.000000
1.000000
1.000000
1.000000
1.000000
1.000000
1.000000
1.000000
1.000000
1.000000
1.000000
1.000000
1.000000
1.000000
1.000000
1.000000
1.000000
1.000000
1.000000
1.000000
1.000000
1.000000
1.000000
1.000000
1.000000
1.000000
1.000000
1.000000
1.000000
1.000000
1.000000
1.000000
1.000000
1.000000
1.000000
1.000000
1.000000
1.000000
1.000000
1.000000
1.000000
1.000000
1.000000
1.000000
1.000000
1.000000
1.000000
1.000000
1.000000
1.000000
1.000000
1.000000
1.000000
1.000000
1.000000
1.000000
1.000000
1.000000
1.000000
1.000000
1.000000
1.000000
1.000000
1.000000
1.000000
1.000000
1.000000
1.000000
1.000000
1.000000
1.000000
1.000000
1.000000
1.000000
1.000000
1.000000
1.000000
1.000000
1.000000
1.000000
1.000000
1.000000
1.000000
1.000000
1.000000
1.000000
1.000000
1.000000
1.000000
1.000000
1.000000
1.000000
1.000000
1.000000
1.000000
1.000000
1.000000
1.000000
1.000000
1.000000
1.000000
1.000000
1.000000
1.000000
1.000000
1.000000
1.000000
1.000000
1.000000
1.000000
1.000000
1.000000
1.000000
1.000000
1.000000
1.000000
1.000000
1.000000
1.000000
1.000000
1.000000
1.000000
1.000000
1.000000
1.000000
1.000000
1.000000
1.000000
1.000000
1.000000
1.000000
1.000000
1.000000
1.000000
1.000000
1.000000
1.000000
1.000000
1.000000
1.000000
1.000000
1.000000
1.000000
1.000000
1.000000
1.000000
1.000000
1.000000
1.000000
1.000000
1.000000
1.000000
1.000000
1.000000
1.000000
1.000000
1.000000
1.000000
1.000000
1.000000
1.000000
1.000000
1.000000
1.000000
1.000000
1.000000
1.000000
1.000000
1.000000
1.000000
1.000000
1.000000
1.000000
1.000000
1.000000
1.000000
1.000000
1.000000
1.000000
1.000000
1.000000
1.000000
1.000000
1.000000
1.000000
1.000000
1.000000
1.000000
1.000000
1.000000
1.000000
1.000000
1.000000
1.000000
1.000000
1.000000
1.000000
1.000000
1.000000
1.000000
1.000000
1.000000
1.000000
1.000000
1.000000
1.000000
1.000000
1.000000
1.000000
1.000000
1.000000
1.000000
1.000000
1.000000
1.000000
1.000000
1.000000
1.000000
1.000000
1.000000
1.000000
1.000000
1.000000
1.000000
1.000000
1.000000
1.000000
1.000000
1.000000
1.000000
1.000000
1.000000
1.000000
1.000000
1.000000
1.000000
1.000000
1.000000
1.000000
1.000000
1.000000
1.000000
1.000000
1.000000
1.000000
1.000000
1.000000
1.000000
1.000000
1.000000
1.000000
1.000000
1.000000
1.000000
1.000000
1.000000
1.000000
1.000000
1.000000
1.000000
1.000000
1.000000
1.000000
1.000000
1.000000
1.000000
1.000000
1.000000
1.000000
1.000000
1.000000
1.000000
1.000000
1.000000
1.000000
1.000000
1.000000
1.000000
1.000000
1.000000
1.000000
1.000000
1.000000
1.000000
1.000000
1.000000
1.000000
1.000000
1.000000
1.000000
1.000000
1.000000
1.000000
1.000000
1.000000
1.000000
1.000000
1.000000
1.000000
1.000000
1.000000
1.000000
1.000000
1.000000
1.000000
1.000000
1.000000
1.000000
1.000000
1.000000
1.000000
1.000000
1.000000
1.000000
1.000000
1.000000
1.000000
1.000000
1.000000
1.000000
1.000000
1.000000
1.000000
1.000000
1.000000
1.000000
1.000000
1.000000
1.000000
1.000000
1.000000
1.000000
1.000000
1.000000
1.000000
1.000000
1.000000
1.000000
1.000000
1.000000
1.000000
1.000000
1.000000
1.000000
1.000000
1.000000
1.000000
1.000000
1.000000
1.000000
1.000000
1.000000
1.000000
1.000000
1.000000
1.000000
1.000000
1.000000
1.000000
1.000000
1.000000
1.000000
1.000000
1.000000
1.000000
1.000000
1.000000
1.000000
1.000000
1.000000
1.000000
1.000000
1.000000
1.000000
1.000000
1.000000
1.000000
1.000000
1.000000
1.000000
1.000000
1.000000
1.000000
1.000000
1.000000
1.000000
1.000000
1.000000
1.000000
1.000000
1.000000
1.000000
1.000000
1.000000
1.000000
1.000000
1.000000
1.000000
1.000000
1.000000
1.000000
1.000000
1.000000
1.000000
1.000000
1.000000
1.000000
1.000000
1.000000
1.000000
1.000000
1.000000
1.000000
1.000000
1.000000
1.000000
1.000000
1.000000
1.000000
1.000000
1.000000
1.000000
1.000000
1.000000
1.000000
1.000000
1.000000
1.000000
1.000000
1.000000
1.000000
1.000000
1.000000
1.000000
1.000000
1.000000
1.000000
1.000000
1.000000
1.000000
1.000000
1.000000
1.000000
1.000000
1.000000
1.000000
1.000000
1.000000
1.000000
1.000000
1.000000
1.000000
1.000000
1.000000
1.000000
1.000000
1.000000
1.000000
1.000000
1.000000
1.000000
1.000000
1.000000
1.000000
1.000000
1.000000
1.000000
1.000000
1.000000
1.000000
1.000000
1.000000
1.000000
1.000000
1.000000
1.000000
1.000000
1.000000
1.000000
1.000000
1.000000
1.000000
1.000000
1.000000
1.000000
1.000000
1.000000
1.000000
1.000000
1.000000
1.000000
1.000000
1.000000
1.000000
1.000000
1.000000
1.000000
1.000000
1.000000
1.000000
1.000000
1.000000
1.000000
1.000000
1.000000
1.000000
1.000000
1.000000
1.000000
1.000000
1.000000
1.000000
1.000000
1.000000
1.000000
1.000000
1.000000
1.000000
1.000000
1.000000
1.000000
1.000000
1.000000
1.000000
1.000000
1.000000
1.000000
1.000000
1.000000
1.000000
1.000000
1.000000
1.000000
1.000000
1.000000
1.000000
1.000000
1.000000
1.000000
1.000000
1.000000
1.000000
1.000000
1.000000
1.000000
1.000000
1.000000
1.000000
1.000000
1.000000
1.000000
1.000000
1.000000
1.000000
1.000000
1.000000
1.000000
1.000000
1.000000
1.000000
1.000000
1.000000
1.000000
1.000000
1.000000
1.000000
1.000000
1.000000
1.000000
1.000000
1.000000
1.000000
1.000000
1.000000
1.000000
1.000000
1.000000
1.000000
1.000000
1.000000
1.000000
1.000000
1.000000
1.000000
1.000000
1.000000
1.000000
1.000000
1.000000
1.000000
1.000000
1.000000
1.000000
1.000000
1.000000
1.000000
1.000000
1.000000
1.000000
1.000000
1.000000
1.000000
1.000000
1.000000
1.000000
1.000000
1.000000
1.000000
1.000000
1.000000
1.000000
1.000000
1.000000
1.000000
1.000000
1.000000
1.000000
1.000000
1.000000
1.000000
1.000000
1.000000
1.000000
1.000000
1.000000
1.000000
1.000000
1.000000
1.000000
1.000000
1.000000
1.000000
1.000000
1.000000
1.000000
1.000000
1.000000
1.000000
1.000000
1.000000
1.000000
1.000000
1.000000
1.000000
1.000000
1.000000
1.000000
1.000000
1.000000
1.000000
1.000000
1.000000
1.000000
1.000000
1.000000
1.000000
1.000000
1.000000
1.000000
1.000000
1.000000
1.000000
1.000000
1.000000
1.000000
1.000000
1.000000
1.000000
1.000000
1.000000
1.000000
1.000000
1.000000
1.000000
1.000000
1.000000
1.000000
1.000000
1.000000
1.000000
1.000000
1.000000
1.000000
1.000000
1.000000
1.000000
1.000000
1.000000
1.000000
1.000000
1.000000
1.000000
1.000000
1.000000
1.000000
1.000000
1.000000
1.000000
1.000000
1.000000
1.000000
1.000000
1.000000
1.000000
1.000000
1.000000
1.000000
1.000000
1.000000
1.000000
1.000000
VECTORS v double
3.965297 -7.061347 0.000000
-2.716297 -3.867126 0.000000
-3.111110 4.926943 0.000000
-6.196788 -1.485694 0.000000
4.104717 -5.836805 0.000000
0.050163 11.052289 0.000000
10.068358 6.866147 0.000000
-9.233792 2.798604 0.000000
5.433242 9.868454 0.000000
7.178067 6.858496 0.000000
-3.825785 9.226176 0.000000
9.910067 1.452917 0.000000
10.003742 -0.059976 0.000000
9.835022 -1.575697 0.000000
9.885257 0.393392 0.000000
-5.567703 -4.911845 0.000000
2.748727 0.001410 0.000000
-3.988821 -5.974004 0.000000
-5.784414 3.855461 0.000000
2.757944 -7.216012 0.000000
0.363659 -9.270580 0.000000
7.290551 7.618197 0.000000
1.926562 -2.347479 0.000000
5.526225 7.505456 0.000000
-2.129039 1.822479 0.000000
2.630975 -13.726701 0.000000
1.545864 -10.752637 0.000000
5.366953 -9.594234 0.000000
-0.798044 -10.346476 0.000000
0.492207 5.571607 0.000000
-1.779524 -8.153112 0.000000
9.013630 -1.252760 0.000000
-4.967171 -1.186325 0.000000
5.654512 14.838910 0.000000
3.865802 1.511135 0.000000
-1.539641 1.010926 0.000000
8.220498 -5.112141 0.000000
9.272279 1.139461 0.000000
3.338457 6.747248 0.000000
7.175500 -1.267391 0.000000
-8.435371 -19.117291 0.000000
-4.145591 -7.088665 0.000000
-4.545776 0.419835 0.000000
-4.701582 7.557214 0.000000
1.254170 0.127417 0.000000
4.489112 -11.292394 0.000000
-2.648145 -9.119888 0.000000
5.386497 9.582079 0.000000
-0.091863 -0.828806 0.000000
2.630975 13.726701 0.000000
-0.032443 -9.521279 0.000000
13.334355 -9.348382 0.000000
5.143843 -4.482496 0.000000
-6.511937 -5.371085 0.000000
5.847726 -9.745446 0.000000
-0.232507 9.318737 0.000000
-5.358523 -6.791539 0.000000
5.840352 -5.891390 0.000000
-9.399121 5.682940 0.000000
-6.882576 0.942728 0.000000
7.691274 -3.587108 0.000000
-7.346379 6.106535 0.000000
12.678856 0.133374 0.000000
10.923369 -7.736224 0.000000
-0.438985 -9.856603 0.000000
2.450343 4.816599 0.000000
11.369854 -0.241187 0.000000
-3.705927 -6.893724 0.000000
1.647762 6.630134 0.000000
12.142235 -10.774468 0.000000
3.261534 8.118993 0.000000
-1.427495 -9.601597 0.000000
3.518266 2.339062 0.000000
0.968433 7.947802 0.000000
-0.117981 9.542343 0.000000
-0.115534 -3.512803 0.000000
6.835068 -10.617910 0.000000
2.355517 -1.646047 0.000000
6.017996 -2.419844 0.000000
-8.971765 3.725646 0.000000
-8.765225 4.072255 0.000000
-18.184593 1.336571 0.000000
-8.935789 -1.814744 0.000000
5.217740 2.267158 0.000000
5.092097 -12.269342 0.000000
-7.479413 13.369136 0.000000
7.983326 6.288791 0.000000
0.343481 -1.650049 0.000000
0.046894 -1.337864 0.000000
13.472350 -17.185763 0.000000
-3.193368 1.987562 0.000000
8.706059 0.568407 0.000000
-1.503603 -11.652669 0.000000
-10.958914 1.791085 0.000000
-4.028056 -1.811716 0.000000
2.165292 9.677770 0.000000
4.142569 7.036396 0.000000
-6.014769 8.680645 0.000000
6.835073 10.617909 0.000000
-0.142611 3.521299 0.000000
-4.976412 -0.427805 0.000000
-6.686862 -6.849849 0.000000
-3.311432 -18.635088 0.000000
-5.891933 -5.511575 0.000000
4.000305 1.703316 0.000000
4.626214 3.080656 0.000000
2.298854 -1.230405 0.000000
12.468312 5.520162 0.000000
6.083493 2.864953 0.000000
7.772786 9.086489 0.000000
-9.266535 5.414686 0.000000
-0.929176 -10.594330 0.000000
6.505561 3.052619 0.000000
-4.378344 -12.940098 0.000000
-4.963056 -9.267211 0.000000
6.803508 -8.093925 0.000000
-6.147800 5.727893 0.000000
8.853791 -11.687518 0.000000
2.422779 3.471479 0.000000
-1.966955 -1.078748 0.000000
5.796312 -0.117714 0.000000
-6.870070 7.244472 0.000000
9.791113 6.642508 0.000000
4.280640 11.347540 0.000000
-8.452936 6.233872 0.000000
-1.113811 -6.327210 0.000000
-1.995869 -10.927654 0.000000
5.231377 -12.362261 0.000000
-2.556594 6.994155 0.000000
-6.429234 -0.688931 0.000000
-6.962720 4.596014 0.000000
-3.571244 4.510860 0.000000
2.292672 5.366000 0.000000
10.352877 0.153416 0.000000
13.169331 -7.367408 0.000000
-15.404816 3.582066 0.000000
-15.989813 4.538983 0.000000
-3.841456 -10.446841 0.000000
17.359253 4.781174 0.000000
12.035641 -11.658469 0.000000
1.530628 -0.611757 0.000000
-2.107355 -5.054161 0.000000
4.023804 12.412312 0.000000
-2.595909 -2.848144 0.000000
-3.173659 7.681476 0.000000
-0.604725 -11.585816 0.000000
-3.417668 0.622871 0.000000
10.405133 -9.635377 0.000000
-1.995430 10.927780 0.000000
-1.113835 6.327240 0.000000
5.092123 -5.842081 0.000000
-0.683574 -18.204706 0.000000
3.995110 -4.740505 0.000000
-6.009999 -7.231643 0.000000
1.634663 13.079162 0.000000
-5.688020 -9.246850 0.000000
2.927461 4.571648 0.000000
0.101856 12.232000 0.000000
-9.550477 -3.734115 0.000000
2.061426 4.910066 0.000000
4.205198 -8.699837 0.000000
-7.126980 0.125067 0.000000
-1.697717 -3.848999 0.000000
-10.194198 -5.070613 0.000000
-3.799250 14.637544 0.000000
-6.955449 4.537540 0.000000
0.824406 16.513375 0.000000
-8.032173 13.744784 0.000000
-0.608164 -6.572372 0.000000
-9.431001 2.564138 0.000000
5.913752 3.847168 0.000000
3.820814 -7.705951 0.000000
-0.913606 6.661801 0.000000
-13.957371 8.636696 0.000000
-0.373374 9.971293 0.000000
4.837053 -9.997753 0.000000
-2.024424 -9.042258 0.000000
10.435604 -0.578549 0.000000
5.772002 -3.995371 0.000000
-8.122961 3.988171 0.000000
-2.451997 -4.756847 0.000000
0.305352 -11.901540 0.000000
3.313726 0.436441 0.000000
-2.258333 3.773283 0.000000
-6.012129 6.719448 0.000000
-16.215824 4.821953 0.000000
-7.693431 -8.442013 0.000000
-17.649180 8.536734 0.000000
1.194705 10.574194 0.000000
6.341397 4.639397 0.000000
-4.111907 6.804844 0.000000
-2.443515 -0.985959 0.000000
-11.976982 -4.597720 0.000000
-3.277228 -6.790334 0.000000
-7.091258 -2.332322 0.000000
-10.705929 -9.894631 0.000000
-2.705512 -12.229825 0.000000
-5.418603 11.097481 0.000000
-4.372641 -12.882908 0.000000
4.837053 9.997753 0.000000
-2.894711 -4.332275 0.000000
10.040138 -1.797872 0.000000
-5.740562 -11.675980 0.000000
3.937031 8.787765 0.000000
-7.680155 -0.451731 0.000000
1.444881 -3.155891 0.000000
-9.146285 11.668536 0.000000
2.173235 -6.591519 0.000000
4.056034 -1.737194 0.000000
-6.696364 -7.672661 0.000000
-0.579519 4.154904 0.000000
1.799596 8.741099 0.000000
12.935936 6.776789 0.000000
-8.353481 -0.419832 0.000000
-8.367317 7.273230 0.000000
-4.191382 -1.870372 0.000000
-1.303287 0.046955 0.000000
3.295647 -8.776996 0.000000
-13.336000 -8.235614 0.000000
-8.835548 -5.053033 0.000000
3.889955 -2.517553 0.000000
-9.453634 3.987537 0.000000
0.938432 7.846185 0.000000
-6.282824 4.372519 0.000000
0.415814 8.132530 0.000000
1.645690 -0.894179 0.000000
-3.933471 -8.257423 0.000000
-7.121570 -6.602528 0.000000
-0.701124 -3.582606 0.000000
-0.698925 18.441641 0.000000
-13.741081 -6.340087 0.000000
2.511466 -6.847780 0.000000
10.013007 4.952548 0.000000
-1.843145 -2.078432 0.000000
-3.334109 10.018364 0.000000
-0.326443 -4.080430 0.000000
7.513423 0.891615 0.000000
9.361924 -0.254780 0.000000
0.046221 18.733500 0.000000
18.943166 -1.819825 0.000000
14.145609 -0.547313 0.000000
12.618697 5.827808 0.000000
-7.893745 1.233833 0.000000
-7.892459 9.779920 0.000000
2.746941 -1.921776 0.000000
-2.186274 4.248334 0.000000
-7.479574 4.196406 0.000000
-7.308565 6.997753 0.000000
-3.933463 8.257426 0.000000
1.767800 1.796073 0.000000
11.836092 -6.442569 0.000000
-13.123489 -7.345586 0.000000
3.126169 3.044780 0.000000
-2.377775 -1.337545 0.000000
-4.969115 -1.556071 0.000000
8.312832 7.101337 0.000000
-10.300562 2.124941 0.000000
-1.003778 -5.420153 0.000000
-12.877779 -3.091795 0.000000
-8.202337 8.112716 0.000000
-2.593273 0.526871 0.000000
-9.916702 -1.127762 0.000000
3.303854 -14.192094 0.000000
-10.229857 -14.828186 0.000000
-1.159791 7.789165 0.000000
6.789438 -1.676859 0.000000
3.814214 -0.119068 0.000000
-0.862880 -8.845994 0.000000
-7.541997 1.657522 0.000000
-3.517545 -4.865303 0.000000
1.609873 -6.869119 0.000000
-7.689856 6.476023 0.000000
4.999373 8.366846 0.000000
-3.641995 -6.599013 0.000000
-7.870795 -3.598496 0.000000
-7.979631 -7.180433 0.000000
-7.417775 -4.573948 0.000000
-5.794022 12.296195 0.000000
2.939077 -7.574413 0.000000
3.408369 3.663679 0.000000
-14.441788 6.039104 0.000000
-2.891745 4.143709 0.000000
-6.305123 0.965647 0.000000
-4.512644 4.387375 0.000000
-11.025810 3.140468 0.000000
4.732476 4.577202 0.000000
-9.139590 -0.831801 0.000000
0.708962 12.022735 0.000000
-9.919701 0.101514 0.000000
-6.924973 -4.872641 0.000000
-13.343931 -6.608799 0.000000
-0.648878 -14.221398 0.000000
12.674607 -1.075580 0.000000
7.267817 0.742450 0.000000
-5.284569 -2.765679 0.000000
0.330304 7.245806 0.000000
-1.552443 8.540062 0.000000
1.797017 -3.986436 0.000000
-6.811033 4.638971 0.000000
-7.983276 7.192506 0.000000
-10.063146 -0.180004 0.000000
-8.681558 -9.450688 0.000000
3.568867 1.430453 0.000000
-7.211484 3.730492 0.000000
3.493267 -5.830274 0.000000
-2.227243 1.701262 0.000000