# vtk DataFile Version 4.0
hesp visualization file
ASCII
DATASET UNSTRUCTURED_GRID
POINTS 1250 double
31.991145 1.484097 4.000000
30.324282 2.827072 4.000000
30.189530 3.363979 4.000000
30.189634 4.489843 4.000000
30.189634 5.612310 4.000000
30.189634 6.734772 4.000000
30.189634 7.857234 4.000000
30.189634 8.979696 4.000000
30.189634 10.102158 4.000000
30.189634 11.224620 4.000000
30.189634 12.347083 4.000000
30.189634 13.469545 4.000000
30.189634 14.592007 4.000000
30.189634 15.714469 4.000000
30.189634 16.836931 4.000000
30.189634 17.959393 4.000000
30.189634 19.081855 4.000000
30.189634 20.204317 4.000000
30.189634 21.326779 4.000000
30.189634 22.449241 4.000000
30.189634 23.571703 4.000000
30.189634 24.694170 4.000000
30.189530 25.820036 4.000000
30.324283 26.356941 4.000000
31.991145 27.699916 4.000000
31.422360 -1.094421 4.000000
31.182353 2.309854 4.000000
31.312983 3.371291 4.000000
31.137120 4.489852 4.000000
31.137107 5.612310 4.000000
31.137107 6.734772 4.000000
31.137107 7.857234 4.000000
31.137107 8.979696 4.000000
31.137107 10.102158 4.000000
31.137107 11.224620 4.000000
31.137107 12.347083 4.000000
31.137107 13.469545 4.000000
31.137107 14.592007 4.000000
31.137107 15.714469 4.000000
31.137107 16.836931 4.000000
31.137107 17.959393 4.000000
31.137107 19.081855 4.000000
31.137107 20.204317 4.000000
31.137107 21.326779 4.000000
31.137107 22.449241 4.000000
31.137107 23.571703 4.000000
31.137120 24.694160 4.000000
31.312983 25.812719 4.000000
31.182353 26.874160 4.000000
31.422360 30.278434 4.000000
31.068178 1.333855 4.000000
31.712099 3.031609 4.000000
31.540626 4.027490 4.000000
31.516522 4.489739 4.000000
31.516507 5.612310 4.000000
31.516507 6.734772 4.000000
31.516507 7.857234 4.000000
31.516507 8.979696 4.000000
31.516507 10.102158 4.000000
31.516507 11.224620 4.000000
31.516507 12.347083 4.000000
31.516507 13.469545 4.000000
31.516507 14.592007 4.000000
31.516507 15.714469 4.000000
31.516507 16.836931 4.000000
31.516507 17.959393 4.000000
31.516507 19.081855 4.000000
31.516507 20.204317 4.000000
31.516507 21.326779 4.000000
31.516507 22.449241 4.000000
31.516507 23.571703 4.000000
31.516522 24.694276 4.000000
31.540631 25.156523 4.000000
31.712094 26.152409 4.000000
31.068178 27.850158 4.000000
31.805469 -0.154029 4.000000
32.669993 1.346823 4.000000
32.464013 3.379303 4.000000
32.463700 4.489856 4.000000
32.463701 5.612310 4.000000
32.463701 6.734772 4.000000
32.463701 7.857234 4.000000
32.463701 8.979696 4.000000
32.463701 10.102158 4.000000
32.463701 11.224620 4.000000
32.463701 12.347083 4.000000
32.463701 13.469545 4.000000
32.463701 14.592007 4.000000
32.463701 15.714469 4.000000
32.463701 16.836931 4.000000
32.463701 17.959393 4.000000
32.463701 19.081855 4.000000
32.463701 20.204317 4.000000
32.463701 21.326779 4.000000
32.463701 22.449241 4.000000
32.463701 23.571703 4.000000
32.463700 24.694155 4.000000
32.464014 25.804702 4.000000
32.669992 27.837190 4.000000
31.805469 29.338042 4.000000
33.456188 2.177048 4.000000
31.784973 2.527131 4.000000
32.841858 3.358930 4.000000
32.843432 4.489840 4.000000
32.843435 5.612310 4.000000
32.843435 6.734772 4.000000
32.843435 7.857234 4.000000
32.843435 8.979696 4.000000
32.843435 10.102158 4.000000
32.843435 11.224620 4.000000
32.843435 12.347083 4.000000
32.843435 13.469545 4.000000
32.843435 14.592007 4.000000
32.843435 15.714469 4.000000
32.843435 16.836931 4.000000
32.843435 17.959393 4.000000
32.843435 19.081855 4.000000
32.843435 20.204317 4.000000
32.843435 21.326779 4.000000
32.843435 22.449241 4.000000
32.843435 23.571703 4.000000
32.843432 24.694175 4.000000
32.841858 25.825090 4.000000
31.784973 26.656882 4.000000
33.456188 27.006965 4.000000
31.959619 0.909242 4.000000
34.037686 2.027923 4.000000
33.790241 3.371294 4.000000
33.790192 4.489852 4.000000
33.790192 5.612310 4.000000
33.790192 6.734772 4.000000
33.790192 7.857234 4.000000
33.790192 8.979696 4.000000
33.790192 10.102158 4.000000
33.790192 11.224620 4.000000
33.790192 12.347083 4.000000
33.790192 13.469545 4.000000
33.790192 14.592007 4.000000
33.790192 15.714469 4.000000
33.790192 16.836931 4.000000
33.790192 17.959393 4.000000
33.790192 19.081855 4.000000
33.790192 20.204317 4.000000
33.790192 21.326779 4.000000
33.790192 22.449241 4.000000
33.790192 23.571703 4.000000
33.790192 24.694160 4.000000
33.790241 25.812716 4.000000
34.037685 27.156089 4.000000
31.959619 28.274771 4.000000
33.215509 1.848223 4.000000
34.883075 2.785288 4.000000
34.170266 3.365002 4.000000
34.170306 4.489846 4.000000
34.170306 5.612310 4.000000
34.170306 6.734772 4.000000
34.170306 7.857234 4.000000
34.170306 8.979696 4.000000
34.170306 10.102158 4.000000
34.170306 11.224620 4.000000
34.170306 12.347083 4.000000
34.170306 13.469545 4.000000
34.170306 14.592007 4.000000
34.170306 15.714469 4.000000
34.170306 16.836931 4.000000
34.170306 17.959393 4.000000
34.170306 19.081855 4.000000
34.170306 20.204317 4.000000
34.170306 21.326779 4.000000
34.170306 22.449241 4.000000
34.170306 23.571703 4.000000
34.170306 24.694168 4.000000
34.170266 25.819013 4.000000
34.883075 26.398725 4.000000
33.215509 27.335790 4.000000
35.665314 -0.015758 4.000000
34.518012 2.317851 4.000000
35.116645 3.367833 4.000000
35.116655 4.489848 4.000000
35.116655 5.612310 4.000000
35.116655 6.734772 4.000000
35.116655 7.857234 4.000000
35.116655 8.979696 4.000000
35.116655 10.102158 4.000000
35.116655 11.224620 4.000000
35.116655 12.347083 4.000000
35.116655 13.469545 4.000000
35.116655 14.592007 4.000000
35.116655 15.714469 4.000000
35.116655 16.836931 4.000000
35.116655 17.959393 4.000000
35.116655 19.081855 4.000000
35.116655 20.204317 4.000000
35.116655 21.326779 4.000000
35.116655 22.449241 4.000000
35.116655 23.571703 4.000000
35.116655 24.694165 4.000000
35.116645 25.816180 4.000000
34.518012 26.866162 4.000000
35.665314 29.199771 4.000000
34.795633 1.704322 4.000000
35.334538 2.397932 4.000000
35.496964 3.367149 4.000000
35.497004 4.489848 4.000000
35.497004 5.612310 4.000000
35.497004 6.734772 4.000000
35.497004 7.857234 4.000000
35.497004 8.979696 4.000000
35.497004 10.102158 4.000000
35.497004 11.224620 4.000000
35.497004 12.347083 4.000000
35.497004 13.469545 4.000000
35.497004 14.592007 4.000000
35.497004 15.714469 4.000000
35.497004 16.836931 4.000000
35.497004 17.959393 4.000000
35.497004 19.081855 4.000000
35.497004 20.204317 4.000000
35.497004 21.326779 4.000000
35.497004 22.449241 4.000000
35.497004 23.571703 4.000000
35.497004 24.694165 4.000000
35.496964 25.816864 4.000000
35.334538 26.786081 4.000000
34.795633 27.479691 4.000000
35.524513 1.123860 4.000000
36.491787 2.084627 4.000000
36.443149 3.367412 4.000000
36.443149 4.489848 4.000000
36.443149 5.612310 4.000000
36.443149 6.734772 4.000000
36.443149 7.857234 4.000000
36.443149 8.979696 4.000000
36.443149 10.102158 4.000000
36.443149 11.224620 4.000000
36.443149 12.347083 4.000000
36.443149 13.469545 4.000000
36.443149 14.592007 4.000000
36.443149 15.714469 4.000000
36.443149 16.836931 4.000000
36.443149 17.959393 4.000000
36.443149 19.081855 4.000000
36.443149 20.204317 4.000000
36.443149 21.326779 4.000000
36.443149 22.449241 4.000000
36.443149 23.571703 4.000000
36.443149 24.694165 4.000000
36.443149 25.816602 4.000000
36.491787 27.099387 4.000000
35.524513 28.060153 4.000000
36.647079 1.123901 4.000000
36.758887 2.297619 4.000000
36.822923 3.367377 4.000000
36.822924 4.489848 4.000000
36.822924 5.612310 4.000000
36.822924 6.734772 4.000000
36.822924 7.857234 4.000000
36.822924 8.979696 4.000000
36.822924 10.102158 4.000000
36.822924 11.224620 4.000000
36.822924 12.347083 4.000000
36.822924 13.469545 4.000000
36.822924 14.592007 4.000000
36.822924 15.714469 4.000000
36.822924 16.836931 4.000000
36.822924 17.959393 4.000000
36.822924 19.081855 4.000000
36.822924 20.204317 4.000000
36.822924 21.326779 4.000000
36.822924 22.449241 4.000000
36.822924 23.571703 4.000000
36.822924 24.694165 4.000000
36.822923 25.816636 4.000000
36.758887 26.886394 4.000000
36.647079 28.060112 4.000000
37.769544 1.123897 4.000000
37.769544 2.244932 4.000000
37.769544 3.367386 4.000000
37.769544 4.489848 4.000000
37.769544 5.612310 4.000000
37.769544 6.734772 4.000000
37.769544 7.857234 4.000000
37.769544 8.979696 4.000000
37.769544 10.102158 4.000000
37.769544 11.224620 4.000000
37.769544 12.347083 4.000000
37.769544 13.469545 4.000000
37.769544 14.592007 4.000000
37.769544 15.714469 4.000000
37.769544 16.836931 4.000000
37.769544 17.959393 4.000000
37.769544 19.081855 4.000000
37.769544 20.204317 4.000000
37.769544 21.326779 4.000000
37.769544 22.449241 4.000000
37.769544 23.571703 4.000000
37.769544 24.694165 4.000000
37.769544 25.816627 4.000000
37.769544 26.939081 4.000000
37.769544 28.060116 4.000000
38.892007 1.123897 4.000000
38.892007 2.244932 4.000000
38.892007 3.367386 4.000000
38.892007 4.489848 4.000000
38.892007 5.612310 4.000000
38.892007 6.734772 4.000000
38.892007 7.857234 4.000000
38.892007 8.979696 4.000000
38.892007 10.102158 4.000000
38.892007 11.224620 4.000000
38.892007 12.347083 4.000000
38.892007 13.469545 4.000000
38.892007 14.592007 4.000000
38.892007 15.714469 4.000000
38.892007 16.836931 4.000000
38.892007 17.959393 4.000000
38.892007 19.081855 4.000000
38.892007 20.204317 4.000000
38.892007 21.326779 4.000000
38.892007 22.449241 4.000000
38.892007 23.571703 4.000000
38.892007 24.694165 4.000000
38.892007 25.816627 4.000000
38.892007 26.939081 4.000000
38.892007 28.060116 4.000000
40.014469 1.123897 4.000000
40.014469 2.244932 4.000000
40.014469 3.367386 4.000000
40.014469 4.489848 4.000000
40.014469 5.612310 4.000000
40.014469 6.734772 4.000000
40.014469 7.857234 4.000000
40.014469 8.979696 4.000000
40.014469 10.102158 4.000000
40.014469 11.224620 4.000000
40.014469 12.347083 4.000000
40.014469 13.469545 4.000000
40.014469 14.592007 4.000000
40.014469 15.714469 4.000000
40.014469 16.836931 4.000000
40.014469 17.959393 4.000000
40.014469 19.081855 4.000000
40.014469 20.204317 4.000000
40.014469 21.326779 4.000000
40.014469 22.449241 4.000000
[...]
POINT_DATA 1250
SCALARS m double
LOOKUP_TABLE default
1.000000
1.000000
1.000000
1.000000
1.000000
1.000000
1.000000
1.000000
1.000000
1.000000
1.000000
1.000000
1.000000
1.000000
1.000000
1.000000
1.000000
1.000000
1.000000
1.000000
1.000000
1.000000
1.000000
1.000000
1.000000
1.000000
1.000000
1.000000
1.000000
1.000000
1.000000
1.000000
1.000000
1.000000
1.000000
1.000000
1.000000
1.000000
1.000000
1.000000
1.000000
1.000000
1.000000
1.000000
1.000000
1.000000
1.000000
1.000000
1.000000
1.000000
1.000000
1.000000
1.000000
1.000000
1.000000
1.000000
1.000000
1.000000
1.000000
1.000000
1.000000
1.000000
1.000000
1.000000
1.000000
1.000000
1.000000
1.000000
1.000000
1.000000
1.000000
1.000000
1.000000
1.000000
1.000000
1.000000
1.000000
1.000000
1.000000
1.000000
1.000000
1.000000
1.000000
1.000000
1.000000
1.000000
1.000000
1.000000
1.000000
1.000000
1.000000
1.000000
1.000000
1.000000
1.000000
1.000000
1.000000
1.000000
1.000000
1.000000
1.000000
1.000000
1.000000
1.000000
1.000000
1.000000
1.000000
1.000000
1.000000
1.000000
1.000000
1.000000
1.000000
1.000000
1.000000
1.000000
1.000000
1.000000
1.000000
1.000000
1.000000
1.000000
1.000000
1.000000
1.000000
1.000000
1.000000
1.000000
1.000000
1.000000
1.000000
1.000000
1.000000
1.000000
1.000000
1.000000
1.000000
1.000000
1.000000
1.000000
1.000000
1.000000
1.000000
1.000000
1.000000
1.000000
1.000000
1.000000
1.000000
1.000000
1.000000
1.000000
1.000000
1.000000
1.000000
1.000000
1.000000
1.000000
1.000000
1.000000
1.000000
1.000000
1.000000
1.000000
1.000000
1.000000
1.000000
1.000000
1.000000
1.000000
1.000000
1.000000
1.000000
1.000000
1.000000
1.000000
1.000000
1.000000
1.000000
1.000000
1.000000
1.000000
1.000000
1.000000
1.000000
1.000000
1.000000
1.000000
1.000000
1.000000
1.000000
1.000000
1.000000
1.000000
1.000000
1.000000
1.000000
1.000000
1.000000
1.000000
1.000000
1.000000
1.000000
1.000000
1.000000
1.000000
1.000000
1.000000
1.000000
1.000000
1.000000
1.000000
1.000000
1.000000
1.000000
1.000000
1.000000
1.000000
1.000000
1.000000
1.000000
1.000000
1.000000
1.000000
1.000000
1.000000
1.000000
1.000000
1.000000
1.000000
1.000000
1.000000
1.000000
1.000000
1.000000
1.000000
1.000000
1.000000
1.000000
1.000000
1.000000
1.000000
1.000000
1.000000
1.000000
1.000000
1.000000
1.000000
1.000000
1.000000
1.000000
1.000000
1.000000
1.000000
1.000000
1.000000
1.000000
1.000000
1.000000
1.000000
1.000000
1.000000
1.000000
1.000000
1.000000
1.000000
1.000000
1.000000
1.000000
1.000000
1.000000
1.000000
1.000000
1.000000
1.000000
1.000000
1.000000
1.000000
1.000000
1.000000
1.000000
1.000000
1.000000
1.000000
1.000000
1.000000
1.000000
1.000000
1.000000
1.000000
1.000000
1.000000
1.000000
1.000000
1.000000
1.000000
1.000000
1.000000
1.000000
1.000000
1.000000
1.000000
1.000000
1.000000
1.000000
1.000000
1.000000
1.000000
1.000000
1.000000
1.000000
1.000000
1.000000
1.000000
1.000000
1.000000
1.000000
1.000000
1.000000
1.000000
1.000000
1.000000
1.000000
1.000000
1.000000
1.000000
1.000000
1.000000
1.000000
1.000000
1.000000
1.000000
1.000000
1.000000
1.000000
1.000000
1.000000
1.000000
1.000000
1.000000
1.000000
1.000000
1.000000
1.000000
1.000000
1.000000
1.000000
1.000000
1.000000
1.000000
1.000000
1.000000
1.000000
1.000000
1.000000
1.000000
1.000000
1.000000
1.000000
1.000000
1.000000
1.000000
1.000000
1.000000
1.000000
1.000000
1.000000
1.000000
1.000000
1.000000
1.000000
1.000000
1.000000
1.000000
1.000000
1.000000
1.000000
1.000000
1.000000
1.000000
1.000000
1.000000
1.000000
1.000000
1.000000
1.000000
1.000000
1.000000
1.000000
1.000000
1.000000
1.000000
1.000000
1.000000
1.000000
1.000000
1.000000
1.000000
1.000000
1.000000
1.000000
1.000000
1.000000
1.000000
1.000000
1.000000
1.000000
1.000000
1.000000
1.000000
1.000000
1.000000
1.000000
1.000000
1.000000
1.000000
1.000000
1.000000
1.000000
1.000000
1.000000
1.000000
1.000000
1.000000
1.000000
1.000000
1.000000
1.000000
1.000000
1.000000
1.000000
1.000000
1.000000
1.000000
1.000000
1.000000
1.000000
1.000000
1.000000
1.000000
1.000000
1.000000
1.000000
1.000000
1.000000
1.000000
1.000000
1.000000
1.000000
1.000000
1.000000
1.000000
1.000000
1.000000
1.000000
1.000000
1.000000
1.000000
1.000000
1.000000
1.000000
1.000000
1.000000
1.000000
1.000000
1.000000
1.000000
1.000000
1.000000
1.000000
1.000000
1.000000
1.000000
1.000000
1.000000
1.000000
1.000000
1.000000
1.000000
1.000000
1.000000
1.000000
1.000000
1.000000
1.000000
1.000000
1.000000
1.000000
1.000000
1.000000
1.000000
1.000000
1.000000
1.000000
1.000000
1.000000
1.000000
1.000000
1.000000
1.000000
1.000000
1.000000
1.000000
1.000000
1.000000
1.000000
1.000000
1.000000
1.000000
1.000000
1.000000
1.000000
1.000000
1.000000
1.000000
1.000000
1.000000
1.000000
1.000000
1.000000
1.000000
1.000000
1.000000
1.000000
1.000000
1.000000
1.000000
1.000000
1.000000
1.000000
1.000000
1.000000
1.000000
1.000000
1.000000
1.000000
1.000000
1.000000
1.000000
1.000000
1.000000
1.000000
1.000000
1.000000
1.000000
1.000000
1.000000
1.000000
1.000000
1.000000
1.000000
1.000000
1.000000
1.000000
1.000000
1.000000
1.000000
1.000000
1.000000
1.000000
1.000000
1.000000
1.000000
1.000000
1.000000
1.000000
1.000000
1.000000
1.000000
1.000000
1.000000
1.000000
1.000000
1.000000
1.000000
1.000000
1.000000
1.000000
1.000000
1.000000
1.000000
1.000000
1.000000
1.000000
1.000000
1.000000
1.000000
1.000000
1.000000
1.000000
1.000000
1.000000
1.000000
1.000000
1.000000
1.000000
1.000000
1.000000
1.000000
1.000000
1.000000
1.000000
1.000000
1.000000
1.000000
1.000000
1.000000
1.000000
1.000000
1.000000
1.000000
1.000000
1.000000
1.000000
1.000000
1.000000
1.000000
1.000000
1.000000
1.000000
1.000000
1.000000
1.000000
1.000000
1.000000
1.000000
1.000000
1.000000
1.000000
1.000000
1.000000
1.000000
1.000000
1.000000
1.000000
1.000000
1.000000
1.000000
1.000000
1.000000
1.000000
1.000000
1.000000
1.000000
1.000000
1.000000
1.000000
1.000000
1.000000
1.000000
1.000000
1.000000
1.000000
1.000000
1.000000
1.000000
1.000000
1.000000
1.000000
1.000000
1.000000
1.000000
1.000000
1.000000
1.000000
1.000000
1.000000
1.000000
1.000000
1.000000
1.000000
1.000000
1.000000
1.000000
1.000000
1.000000
1.000000
1.000000
1.000000
1.000000
1.000000
1.000000
1.000000
1.000000
1.000000
1.000000
1.000000
1.000000
1.000000
1.000000
1.000000
1.000000
1.000000
1.000000
1.000000
1.000000
1.000000
1.000000
1.000000
1.000000
1.000000
1.000000
1.000000
1.000000
1.000000
1.000000
1.000000
1.000000
1.000000
1.000000
1.000000
1.000000
1.000000
1.000000
1.000000
1.000000
1.000000
1.000000
1.000000
1.000000
1.000000
1.000000
1.000000
1.000000
1.000000
1.000000
1.000000
1.000000
1.000000
1.000000
1.000000
1.000000
1.000000
1.000000
1.000000
1.000000
1.000000
1.000000
1.000000
1.000000
1.000000
1.000000
1.000000
1.000000
1.000000
1.000000
1.000000
1.000000
1.000000
1.000000
1.000000
1.000000
1.000000
1.000000
1.000000
1.000000
1.000000
1.000000
1.000000
1.000000
1.000000
1.000000
1.000000
1.000000
1.000000
1.000000
1.000000
1.000000
1.000000
1.000000
1.000000
1.000000
1.000000
1.000000
1.000000
1.000000
1.000000
1.000000
1.000000
1.000000
1.000000
1.000000
1.000000
1.000000
1.000000
1.000000
1.000000
1.000000
1.000000
1.000000
1.000000
1.000000
1.000000
1.000000
1.000000
1.000000
1.000000
1.000000
1.000000
1.000000
1.000000
1.000000
1.000000
1.000000
1.000000
1.000000
1.000000
1.000000
1.000000
1.000000
1.000000
1.000000
1.000000
1.000000
1.000000
1.000000
1.000000
1.000000
1.000000
1.000000
1.000000
1.000000
1.000000
1.000000
1.000000
1.000000
1.000000
1.000000
1.000000
1.000000
1.000000
1.000000
1.000000
1.000000
1.000000
1.000000
1.000000
1.000000
1.000000
1.000000
1.000000
1.000000
1.000000
1.000000
1.000000
1.000000
1.000000
1.000000
1.000000
1.000000
1.000000
1.000000
1.000000
1.000000
1.000000
1.000000
1.000000
1.000000
1.000000
1.000000
1.000000
1.000000
1.000000
1.000000
1.000000
1.000000
1.000000
1.000000
1.000000
1.000000
1.000000
1.000000
1.000000
1.000000
1.000000
1.000000
1.000000
1.000000
1.000000
1.000000
1.000000
1.000000
1.000000
1.000000
1.000000
1.000000
1.000000
1.000000
1.000000
1.000000
1.000000
1.000000
1.000000
1.000000
1.000000
1.000000
1.000000
1.000000
1.000000
1.000000
1.000000
1.000000
1.000000
1.000000
1.000000
1.000000
1.000000
1.000000
1.000000
1.000000
1.000000
1.000000
1.000000
1.000000
1.000000
1.000000
1.000000
1.000000
1.000000
1.000000
1.000000
1.000000
1.000000
1.000000
1.000000
1.000000
1.000000
1.000000
1.000000
1.000000
1.000000
1.000000
1.000000
1.000000
1.000000
1.000000
1.000000
1.000000
1.000000
1.000000
1.000000
1.000000
1.000000
1.000000
1.000000
1.000000
1.000000
1.000000
1.000000
1.000000
1.000000
1.000000
1.000000
1.000000
1.000000
1.000000
1.000000
1.000000
1.000000
1.000000
1.000000
1.000000
1.000000
1.000000
1.000000
1.000000
1.000000
1.000000
1.000000
1.000000
1.000000
1.000000
1.000000
1.000000
1.000000
1.000000
1.000000
1.000000
1.000000
1.000000
1.000000
1.000000
1.000000
1.000000
1.000000
1.000000
1.000000
1.000000
1.000000
1.000000
1.000000
1.000000
1.000000
1.000000
1.000000
1.000000
1.000000
1.000000
1.000000
1.000000
1.000000
1.000000
1.000000
1.000000
1.000000
1.000000
1.000000
1.000000
1.000000
1.000000
1.000000
1.000000
1.000000
1.000000
1.000000
1.000000
1.000000
1.000000
1.000000
1.000000
1.000000
1.000000
1.000000
1.000000
1.000000
1.000000
1.000000
1.000000
1.000000
1.000000
1.000000
1.000000
1.000000
1.000000
1.000000
1.000000
1.000000
1.000000
1.000000
1.000000
1.000000
1.000000
1.000000
1.000000
1.000000
1.000000
1.000000
1.000000
1.000000
1.000000
1.000000
1.000000
1.000000
1.000000
1.000000
1.000000
1.000000
1.000000
1.000000
1.000000
1.000000
1.000000
1.000000
1.000000
1.000000
1.000000
1.000000
1.000000
1.000000
1.000000
1.000000
1.000000
1.000000
1.000000
1.000000
1.000000
1.000000
1.000000
1.000000
1.000000
1.000000
1.000000
1.000000
1.000000
1.000000
1.000000
1.000000
1.000000
1.000000
1.000000
1.000000
1.000000
1.000000
1.000000
1.000000
1.000000
1.000000
1.000000
1.000000
1.000000
1.000000
1.000000
1.000000
1.000000
1.000000
1.000000
1.000000
1.000000
1.000000
1.000000
1.000000
1.000000
1.000000
1.000000
1.000000
1.000000
1.000000
1.000000
1.000000
1.000000
1.000000
1.000000
1.000000
1.000000
1.000000
1.000000
1.000000
1.000000
1.000000
1.000000
1.000000
1.000000
1.000000
1.000000
1.000000
1.000000
1.000000
1.000000
1.000000
1.000000
1.000000
1.000000
1.000000
1.000000
1.000000
1.000000
1.000000
1.000000
1.000000
1.000000
1.000000
1.000000
1.000000
1.000000
1.000000
1.000000
1.000000
1.000000
1.000000
1.000000
1.000000
1.000000
1.000000
1.000000
1.000000
1.000000
1.000000
1.000000
1.000000
1.000000
1.000000
1.000000
1.000000
1.000000
1.000000
1.000000
1.000000
1.000000
1.000000
1.000000
1.000000
1.000000
1.000000
1.000000
1.000000
1.000000
1.000000
1.000000
1.000000
1.000000
1.000000
1.000000
1.000000
1.000000
1.000000
1.000000
1.000000
1.000000
1.000000
1.000000
1.000000
1.000000
1.000000
1.000000
1.000000
1.000000
1.000000
1.000000
1.000000
1.000000
1.000000
1.000000
1.000000
1.000000
1.000000
1.000000
1.000000
1.000000
1.000000
1.000000
1.000000
1.000000
1.000000
1.000000
1.000000
1.000000
1.000000
1.000000
1.000000
1.000000
1.000000
1.000000
1.000000
1.000000
1.000000
1.000000
1.000000
1.000000
1.000000
1.000000
1.000000
1.000000
1.000000
1.000000
1.000000
1.000000
1.000000
1.000000
1.000000
1.000000
VECTORS v double
9.744818 1.657167 0.000000
-6.591508 7.289372 0.000000
10.032634 -0.068916 0.000000
10.034122 -0.000092 0.000000
10.034127 -0.000001 0.000000
10.034128 0.000000 0.000000
10.034128 0.000000 0.000000
10.034128 -0.000000 0.000000
10.034128 0.000000 0.000000
10.034128 -0.000000 0.000000
10.034128 -0.000000 0.000000
10.034128 0.000000 0.000000
10.034128 -0.000000 0.000000
10.034128 -0.000000 0.000000
10.034128 -0.000000 0.000000
10.034128 0.000000 0.000000
10.034128 -0.000000 0.000000
10.034128 -0.000000 0.000000
10.034128 -0.000000 0.000000
10.034128 -0.000000 0.000000
10.034127 0.000001 0.000000
10.034122 0.000101 0.000000
10.032633 0.068952 0.000000
-6.591505 -7.289376 0.000000
9.744818 -1.657166 0.000000
-2.631059 -13.726949 0.000000
8.027799 -2.923757 0.000000
10.026538 0.059563 0.000000
-10.030991 -0.000682 0.000000
-10.033271 -0.000003 0.000000
-10.033272 0.000000 0.000000
-10.033272 0.000000 0.000000
-10.033272 -0.000000 0.000000
-10.033272 0.000000 0.000000
-10.033272 -0.000000 0.000000
-10.033272 0.000000 0.000000
-10.033272 0.000000 0.000000
-10.033272 -0.000000 0.000000
-10.033272 -0.000000 0.000000
-10.033272 -0.000000 0.000000
-10.033272 0.000000 0.000000
-10.033272 -0.000000 0.000000
-10.033272 -0.000000 0.000000
-10.033272 -0.000000 0.000000
-10.033272 -0.000000 0.000000
-10.033271 0.000003 0.000000
-10.030991 0.000533 0.000000
10.026537 -0.059606 0.000000
8.027796 2.923762 0.000000
-2.631059 13.726949 0.000000
-0.477924 -5.219142 0.000000
0.649811 -3.288870 0.000000
-5.103240 16.423022 0.000000
10.037367 -0.017700 0.000000
10.035225 -0.000010 0.000000
10.035224 0.000000 0.000000
10.035224 0.000000 0.000000
10.035224 -0.000000 0.000000
10.035224 0.000000 0.000000
10.035224 -0.000000 0.000000
10.035224 0.000000 0.000000
10.035224 0.000000 0.000000
10.035224 -0.000000 0.000000
10.035224 -0.000000 0.000000
10.035224 -0.000000 0.000000
10.035224 0.000000 0.000000
10.035224 -0.000000 0.000000
10.035224 -0.000000 0.000000
10.035224 -0.000000 0.000000
10.035224 -0.000000 0.000000
10.035225 0.000010 0.000000
10.037367 0.017855 0.000000
-5.103134 -16.423043 0.000000
0.649707 3.288956 0.000000
-0.477926 5.219141 0.000000
-0.344132 -3.830374 0.000000
-6.951748 -10.522016 0.000000
-10.004735 0.799102 0.000000
-10.033067 0.000519 0.000000
-10.032964 -0.000003 0.000000
-10.032962 0.000000 0.000000
-10.032962 0.000000 0.000000
-10.032962 -0.000000 0.000000
-10.032962 0.000000 0.000000
-10.032962 -0.000000 0.000000
-10.032962 0.000000 0.000000
-10.032962 0.000000 0.000000
-10.032962 -0.000000 0.000000
-10.032962 -0.000000 0.000000
-10.032962 -0.000000 0.000000
-10.032962 0.000000 0.000000
-10.032962 -0.000000 0.000000
-10.032962 -0.000000 0.000000
-10.032962 -0.000000 0.000000
-10.032962 -0.000000 0.000000
-10.032964 0.000003 0.000000
-10.033067 -0.000656 0.000000
-10.004695 -0.799637 0.000000
-6.951751 10.522015 0.000000
-0.344132 3.830374 0.000000
5.406995 5.832800 0.000000
-9.652882 2.224697 0.000000
9.980670 -0.737223 0.000000
10.036090 -0.000662 0.000000
10.036232 -0.000002 0.000000
10.036234 -0.000000 0.000000
10.036234 0.000000 0.000000
10.036234 -0.000000 0.000000
10.036234 0.000000 0.000000
10.036234 -0.000000 0.000000
10.036234 0.000000 0.000000
10.036234 0.000000 0.000000
10.036234 -0.000000 0.000000
10.036234 -0.000000 0.000000
10.036234 -0.000000 0.000000
10.036234 0.000000 0.000000
10.036234 -0.000000 0.000000
10.036234 -0.000000 0.000000
10.036234 -0.000000 0.000000
10.036234 0.000000 0.000000
10.036232 0.000002 0.000000
10.036090 0.000791 0.000000
9.980629 0.737727 0.000000
-9.652882 -2.224700 0.000000
5.406997 -5.832806 0.000000
-9.976524 -1.034052 0.000000
-8.191416 -5.163536 0.000000
-10.029720 0.250103 0.000000
-10.033314 0.000251 0.000000
-10.033316 0.000000 0.000000
-10.033316 0.000000 0.000000
-10.033316 0.000000 0.000000
-10.033316 -0.000000 0.000000
-10.033316 0.000000 0.000000
-10.033316 -0.000000 0.000000
-10.033316 0.000000 0.000000
-10.033316 0.000000 0.000000
-10.033316 -0.000000 0.000000
-10.033316 -0.000000 0.000000
-10.033316 -0.000000 0.000000
-10.033316 0.000000 0.000000
-10.033316 -0.000000 0.000000
-10.033316 -0.000000 0.000000
-10.033316 -0.000000 0.000000
-10.033316 -0.000000 0.000000
-10.033316 -0.000000 0.000000
-10.033314 -0.000302 0.000000
-10.029716 -0.250303 0.000000
-8.191433 5.163512 0.000000
-9.976524 1.034052 0.000000
-9.056229 4.097528 0.000000
8.067600 5.212725 0.000000
10.034377 -0.223255 0.000000
10.036925 -0.000223 0.000000
10.036926 -0.000000 0.000000
10.036926 -0.000000 0.000000
10.036926 -0.000000 0.000000
10.036926 -0.000000 0.000000
10.036926 0.000000 0.000000
10.036926 -0.000000 0.000000
10.036926 0.000000 0.000000
10.036926 0.000000 0.000000
10.036926 -0.000000 0.000000
10.036926 -0.000000 0.000000
10.036926 -0.000000 0.000000
10.036926 0.000000 0.000000
10.036926 -0.000000 0.000000
10.036926 -0.000000 0.000000
10.036926 0.000000 0.000000
10.036926 0.000000 0.000000
10.036926 0.000000 0.000000
10.036925 0.000269 0.000000
10.034373 0.223432 0.000000
8.067601 -5.212724 0.000000
-9.056227 -4.097516 0.000000
4.837055 -9.997916 0.000000
7.124135 6.330116 0.000000
-10.035465 0.024643 0.000000
-10.034201 -0.000019 0.000000
-10.034199 0.000000 0.000000
-10.034199 0.000000 0.000000
-10.034199 0.000000 0.000000
-10.034199 -0.000000 0.000000
-10.034199 0.000000 0.000000
-10.034199 -0.000000 0.000000
-10.034199 -0.000000 0.000000
-10.034199 0.000000 0.000000
-10.034199 -0.000000 0.000000
-10.034199 -0.000000 0.000000
-10.034199 -0.000000 0.000000
-10.034199 0.000000 0.000000
-10.034199 -0.000000 0.000000
-10.034199 -0.000000 0.000000
-10.034199 0.000000 0.000000
-10.034199 -0.000000 0.000000
-10.034199 -0.000000 0.000000
-10.034201 0.000010 0.000000
-10.035465 -0.024676 0.000000
7.124151 -6.330096 0.000000
4.837055 9.997916 0.000000
-5.837478 6.185602 0.000000
-9.761378 2.429911 0.000000
10.035287 -0.024904 0.000000
10.037175 0.000003 0.000000
10.037177 -0.000000 0.000000
10.037177 -0.000000 0.000000
10.037177 -0.000000 0.000000
10.037177 -0.000000 0.000000
10.037177 0.000000 0.000000
10.037177 -0.000000 0.000000
10.037177 -0.000000 0.000000
10.037177 0.000000 0.000000
10.037177 -0.000000 0.000000
10.037177 -0.000000 0.000000
10.037177 -0.000000 0.000000
10.037177 0.000000 0.000000
10.037177 -0.000000 0.000000
10.037177 -0.000000 0.000000
10.037177 0.000000 0.000000
10.037177 -0.000000 0.000000
10.037177 0.000000 0.000000
10.037175 0.000004 0.000000
10.035287 0.024932 0.000000
-9.761378 -2.429911 0.000000
-5.837478 -6.185602 0.000000
-10.002327 0.004152 0.000000
-5.483915 -9.397599 0.000000
-10.035528 0.001509 0.000000
-10.035539 -0.000002 0.000000
-10.035539 0.000000 0.000000
-10.035539 0.000000 0.000000
-10.035539 0.000000 0.000000
-10.035539 -0.000000 0.000000
-10.035539 0.000000 0.000000
-10.035539 -0.000000 0.000000
-10.035539 -0.000000 0.000000
-10.035539 0.000000 0.000000
-10.035539 -0.000000 0.000000
-10.035539 -0.000000 0.000000
-10.035539 -0.000000 0.000000
-10.035539 0.000000 0.000000
-10.035539 -0.000000 0.000000
-10.035539 -0.000000 0.000000
-10.035539 0.000000 0.000000
-10.035539 -0.000000 0.000000
-10.035539 -0.000000 0.000000
-10.035539 0.000002 0.000000
-10.035528 -0.001512 0.000000
-5.483917 9.397598 0.000000
-10.002327 -0.004152 0.000000
-10.000127 0.005328 0.000000
5.228483 7.422272 0.000000
10.035688 -0.001118 0.000000
10.035710 0.000002 0.000000
10.035711 -0.000000 0.000000
10.035711 0.000000 0.000000
10.035711 -0.000000 0.000000
10.035711 -0.000000 0.000000
10.035711 0.000000 0.000000
10.035711 -0.000000 0.000000
10.035711 -0.000000 0.000000
10.035711 0.000000 0.000000
10.035711 -0.000000 0.000000
10.035711 -0.000000 0.000000
10.035711 -0.000000 0.000000
10.035711 0.000000 0.000000
10.035711 -0.000000 0.000000
10.035711 -0.000000 0.000000
10.035711 0.000000 0.000000
10.035711 -0.000000 0.000000
10.035711 0.000000 0.000000
10.035710 -0.000001 0.000000
10.035688 0.001120 0.000000
5.228484 -7.422271 0.000000
-10.000127 -0.005328 0.000000
-10.000010 0.005050 0.000000
-10.000082 0.000027 0.000000
-10.000123 0.000001 0.000000
-10.000124 0.000000 0.000000
-10.000124 0.000000 0.000000
-10.000124 -0.000000 0.000000
-10.000124 -0.000000 0.000000
-10.000124 -0.000000 0.000000
-10.000124 0.000000 0.000000
-10.000124 -0.000000 0.000000
-10.000124 0.000000 0.000000
-10.000124 0.000000 0.000000
-10.000124 -0.000000 0.000000
-10.000124 -0.000000 0.000000
-10.000124 -0.000000 0.000000
-10.000124 0.000000 0.000000
-10.000124 -0.000000 0.000000
-10.000124 -0.000000 0.000000
-10.000124 0.000000 0.000000
-10.000124 0.000000 0.000000
-10.000124 -0.000000 0.000000
-10.000124 -0.000000 0.000000
-10.000123 -0.000001 0.000000
-10.000082 -0.000027 0.000000