# vtk DataFile Version 4.0
hesp visualization file
ASCII
DATASET UNSTRUCTURED_GRID
POINTS 1250 double
33.719438 3.450565 4.000000
30.763200 1.007964 4.000000
35.809072 4.859307 4.000000
33.470981 5.969402 4.000000
32.082361 6.349567 4.000000
30.339756 9.460596 4.000000
31.353242 10.281102 4.000000
30.886343 9.629710 4.000000
30.437452 10.635235 4.000000
30.479854 11.231684 4.000000
30.481030 12.347107 4.000000
30.481035 13.469544 4.000000
30.481035 14.592007 4.000000
30.481035 15.714469 4.000000
30.481032 16.836906 4.000000
30.480316 17.952971 4.000000
31.063088 19.420445 4.000000
30.645229 19.043007 4.000000
31.313166 20.538568 4.000000
30.167276 20.042866 4.000000
33.058196 24.607244 4.000000
30.402522 26.586693 4.000000
33.656199 24.282185 4.000000
31.331906 28.488557 4.000000
32.812886 26.968494 4.000000
30.364098 -9.055913 4.000000
33.124087 2.173923 4.000000
31.509441 -1.550402 4.000000
30.635789 5.423177 4.000000
30.180346 5.847897 4.000000
30.322734 7.223003 4.000000
30.181486 7.594241 4.000000
31.917239 10.896767 4.000000
31.646358 12.145223 4.000000
31.602943 11.214926 4.000000
30.845607 12.349754 4.000000
30.845091 13.469543 4.000000
30.845087 14.592007 4.000000
30.845091 15.714470 4.000000
30.845432 16.834592 4.000000
31.602318 17.968563 4.000000
32.823729 18.642118 4.000000
30.935636 18.235384 4.000000
32.348649 19.110456 4.000000
30.469854 23.774898 4.000000
30.139148 23.952152 4.000000
31.967317 24.144795 4.000000
31.514551 30.730392 4.000000
33.124978 26.998700 4.000000
30.364098 38.239926 4.000000
31.843643 -1.105545 4.000000
32.339242 3.986332 4.000000
32.094750 4.258457 4.000000
32.698276 6.787762 4.000000
32.830768 5.484393 4.000000
31.041030 9.269956 4.000000
32.627451 10.832415 4.000000
31.296018 7.097224 4.000000
31.793464 9.755019 4.000000
32.629674 12.354488 4.000000
31.825189 12.449667 4.000000
31.806678 13.469543 4.000000
31.806676 14.592006 4.000000
31.806675 15.714467 4.000000
31.806890 16.840999 4.000000
32.034574 17.079769 4.000000
31.456818 19.118299 4.000000
32.335962 21.740794 4.000000
32.965146 17.520948 4.000000
30.189154 20.696585 4.000000
30.935712 24.062245 4.000000
34.836994 21.917891 4.000000
32.546123 22.683138 4.000000
33.547018 25.350573 4.000000
31.844969 30.286230 4.000000
31.545422 -2.314805 4.000000
31.539017 -4.790937 4.000000
31.590382 3.657748 4.000000
34.070751 3.445245 4.000000
32.566156 2.833935 4.000000
30.933239 5.537560 4.000000
32.582082 8.978913 4.000000
31.345301 9.686841 4.000000
34.278672 10.769835 4.000000
32.578271 11.209050 4.000000
33.083301 12.487423 4.000000
32.171951 13.468928 4.000000
32.171690 14.592006 4.000000
32.172170 15.715160 4.000000
32.930953 16.843017 4.000000
32.578626 17.971907 4.000000
34.237761 18.440387 4.000000
31.112324 18.530313 4.000000
32.668136 20.425151 4.000000
30.523179 21.052705 4.000000
34.734180 24.397611 4.000000
33.960083 25.877441 4.000000
30.991797 25.525850 4.000000
31.539020 33.974950 4.000000
31.545422 31.498819 4.000000
34.300959 2.372000 4.000000
31.412583 4.655327 4.000000
31.805613 0.281520 4.000000
35.547316 7.057856 4.000000
30.842369 8.526506 4.000000
30.330975 8.254551 4.000000
33.101320 7.778827 4.000000
31.734878 8.547000 4.000000
31.709518 9.023215 4.000000
32.780890 11.960753 4.000000
32.443639 12.883321 4.000000
33.131866 13.470206 4.000000
33.132207 14.591925 4.000000
33.132075 15.713437 4.000000
32.446853 16.998035 4.000000
33.417243 16.541835 4.000000
31.517067 19.704680 4.000000
31.745382 20.649293 4.000000
32.820856 22.503645 4.000000
31.384368 20.959321 4.000000
30.952376 22.397557 4.000000
35.887699 23.993880 4.000000
31.814177 28.651330 4.000000
32.260101 24.665237 4.000000
32.589426 26.243923 4.000000
30.659919 -2.370861 4.000000
32.232532 -3.702561 4.000000
36.584374 7.123096 4.000000
30.811114 6.615627 4.000000
33.280584 7.033100 4.000000
31.694591 5.896560 4.000000
32.038763 7.914584 4.000000
32.503902 9.744771 4.000000
33.697611 10.141721 4.000000
34.466901 12.820474 4.000000
33.363982 14.416693 4.000000
34.246931 13.457609 4.000000
33.538236 14.687070 4.000000
33.490514 15.635757 4.000000
34.198811 14.649864 4.000000
33.957851 15.937877 4.000000
33.706136 19.043692 4.000000
32.755420 19.546014 4.000000
32.049252 21.123376 4.000000
30.410754 21.490040 4.000000
33.950388 20.746585 4.000000
30.246153 21.029199 4.000000
36.667259 24.345988 4.000000
32.232739 32.886632 4.000000
30.659917 31.554877 4.000000
31.068918 1.606179 4.000000
36.620890 3.574638 4.000000
31.406382 0.751247 4.000000
34.131485 4.686343 4.000000
31.081243 8.343334 4.000000
32.330034 7.812008 4.000000
34.321327 7.791649 4.000000
34.801593 9.128236 4.000000
32.950505 8.780373 4.000000
33.703538 11.249235 4.000000
33.708411 12.247477 4.000000
34.649342 13.605736 4.000000
34.475818 14.579210 4.000000
34.192929 15.724814 4.000000
33.879573 17.550331 4.000000
33.703484 17.935453 4.000000
32.964170 20.474153 4.000000
34.704772 19.733724 4.000000
33.759191 22.989423 4.000000
31.741468 21.286001 4.000000
31.859604 22.748542 4.000000
33.631681 22.379557 4.000000
30.727967 27.022201 4.000000
36.617353 25.792352 4.000000
31.520708 27.336935 4.000000
38.470805 -5.814459 4.000000
34.683371 2.047302 4.000000
36.265520 1.772221 4.000000
32.927475 7.121919 4.000000
34.928889 5.548761 4.000000
33.128880 6.478778 4.000000
35.810038 9.856809 4.000000
36.625377 9.386165 4.000000
34.079225 10.105505 4.000000
34.252084 11.209964 4.000000
34.866501 12.582488 4.000000
34.920123 13.431366 4.000000
34.825692 14.592001 4.000000
34.825874 15.713961 4.000000
36.033886 16.204488 4.000000
34.252400 17.972422 4.000000
34.080763 19.077792 4.000000
36.887542 19.840268 4.000000
35.780512 19.814101 4.000000
33.006904 22.277236 4.000000
35.141779 21.886621 4.000000
33.098066 22.710299 4.000000
36.068640 27.474762 4.000000
35.107599 24.126993 4.000000
38.470805 34.998472 4.000000
32.122513 2.606698 4.000000
31.804606 1.621642 4.000000
36.747198 1.003109 4.000000
36.513089 4.990737 4.000000
34.021427 7.614840 4.000000
34.981443 7.144371 4.000000
34.099120 8.014993 4.000000
36.735021 10.694386 4.000000
34.907822 10.485512 4.000000
35.030174 11.224072 4.000000
35.937254 12.185102 4.000000
35.782645 13.469029 4.000000
35.783546 14.592009 4.000000
35.783420 15.715038 4.000000
35.062273 16.930776 4.000000
35.030582 17.960407 4.000000
34.804008 18.506947 4.000000
36.472891 18.506085 4.000000
34.129453 21.118778 4.000000
34.426652 21.510570 4.000000
34.036092 21.532092 4.000000
37.066715 24.644215 4.000000
37.262130 28.242464 4.000000
31.804754 27.559792 4.000000
33.065139 27.604825 4.000000
32.273076 0.840846 4.000000
34.082978 -2.801827 4.000000
35.848383 2.360378 4.000000
35.959382 4.492707 4.000000
35.582483 7.382608 4.000000
35.880639 6.901817 4.000000
37.171104 7.953682 4.000000
34.720323 10.056326 4.000000
35.902748 11.068954 4.000000
36.372476 11.572415 4.000000
36.152882 12.347163 4.000000
36.152795 13.469542 4.000000
36.152794 14.592007 4.000000
36.152765 15.714523 4.000000
36.152953 16.837100 4.000000
36.480540 17.265860 4.000000
35.927612 18.254928 4.000000
34.888458 19.381145 4.000000
36.406448 20.368134 4.000000
36.597869 22.407102 4.000000
36.267261 22.138753 4.000000
35.929152 24.921404 4.000000
35.708753 26.811116 4.000000
34.082978 31.985838 4.000000
32.250396 28.282639 4.000000
30.121466 0.048289 4.000000
35.909171 1.542771 4.000000
36.279459 3.624983 4.000000
34.876300 3.055579 4.000000
38.288147 5.404063 4.000000
36.494647 7.527240 4.000000
35.798477 8.476557 4.000000
35.714986 10.604448 4.000000
36.356840 10.104918 4.000000
37.462153 11.971714 4.000000
37.110322 12.346992 4.000000
37.110288 13.469545 4.000000
37.110290 14.592007 4.000000
37.110285 15.714467 4.000000
37.110249 16.837028 4.000000
37.442822 17.267235 4.000000
36.356881 19.079028 4.000000
35.624072 18.688962 4.000000
35.858251 20.347707 4.000000
37.310812 21.375412 4.000000
39.214976 24.213516 4.000000
34.166166 26.469849 4.000000
36.708396 23.925683 4.000000
35.433065 26.799053 4.000000
30.110599 29.210784 4.000000
32.410804 -0.459601 4.000000
35.171033 0.044689 4.000000
37.946389 8.288733 4.000000
34.852823 3.685267 4.000000
37.469558 6.455527 4.000000
38.758930 6.571950 4.000000
36.788597 7.504099 4.000000
36.559746 8.980831 4.000000
37.479914 10.096449 4.000000
37.479786 11.224720 4.000000
37.479670 12.346942 4.000000
37.479721 13.469544 4.000000
37.479721 14.592007 4.000000
37.479721 15.714469 4.000000
37.479690 16.837011 4.000000
37.479770 17.959269 4.000000
37.479916 19.087686 4.000000
36.595324 20.174615 4.000000
37.634113 21.636259 4.000000
37.976815 23.441695 4.000000
36.315922 23.999852 4.000000
34.750324 25.568248 4.000000
37.417749 21.133300 4.000000
35.175729 29.155581 4.000000
32.410835 29.643653 4.000000
33.092268 1.142486 4.000000
34.191981 0.584523 4.000000
38.923001 2.850806 4.000000
38.920006 5.486868 4.000000
38.116403 6.199680 4.000000
36.997470 6.543974 4.000000
38.883587 8.656213 4.000000
37.684039 8.979831 4.000000
38.437128 10.105942 4.000000
38.437638 11.224621 4.000000
38.437670 12.347082 4.000000
38.437673 13.469545 4.000000
38.437673 14.592007 4.000000
38.437673 15.714469 4.000000
38.437670 16.836932 4.000000
38.437640 17.959394 4.000000
38.437130 19.077992 4.000000
37.684061 20.204153 4.000000
38.854230 20.506587 4.000000
36.966282 22.671996 4.000000
37.668889 22.120332 4.000000
37.840025 23.682062 4.000000
38.887811 26.283896 4.000000
34.216686 28.623499 4.000000
33.092186 28.041268 4.000000
33.849033 -0.098759 4.000000
37.426097 2.097121 4.000000
35.904824 2.008673 4.000000
36.233063 4.526267 4.000000
36.914039 4.933124 4.000000
39.252990 6.476227 4.000000
37.881826 7.869988 4.000000
38.806237 8.977560 4.000000
38.806447 10.102197 4.000000
38.806445 11.224621 4.000000
38.806445 12.347082 4.000000
38.806445 13.469545 4.000000
38.806445 14.592007 4.000000
38.806445 15.714469 4.000000
38.806445 16.836931 4.000000
38.806445 17.959393 4.000000
38.806447 19.081816 4.000000
38.806152 20.206235 4.000000
37.883047 21.317080 4.000000
[...]
POINT_DATA 1250
SCALARS m double
LOOKUP_TABLE default
1.000000
1.000000
1.000000
1.000000
1.000000
1.000000
1.000000
1.000000
1.000000
1.000000
1.000000
1.000000
1.000000
1.000000
1.000000
1.000000
1.000000
1.000000
1.000000
1.000000
1.000000
1.000000
1.000000
1.000000
1.000000
1.000000
1.000000
1.000000
1.000000
1.000000
1.000000
1.000000
1.000000
1.000000
1.000000
1.000000
1.000000
1.000000
1.000000
1.000000
1.000000
1.000000
1.000000
1.000000
1.000000
1.000000
1.000000
1.000000
1.000000
1.000000
1.000000
1.000000
1.000000
1.000000
1.000000
1.000000
1.000000
1.000000
1.000000
1.000000
1.000000
1.000000
1.000000
1.000000
1.000000
1.000000
1.000000
1.000000
1.000000
1.000000
1.000000
1.000000
1.000000
1.000000
1.000000
1.000000
1.000000
1.000000
1.000000
1.000000
1.000000
1.000000
1.000000
1.000000
1.000000
1.000000
1.000000
1.000000
1.000000
1.000000
1.000000
1.000000
1.000000
1.000000
1.000000
1.000000
1.000000
1.000000
1.000000
1.000000
1.000000
1.000000
1.000000
1.000000
1.000000
1.000000
1.000000
1.000000
1.000000
1.000000
1.000000
1.000000
1.000000
1.000000
1.000000
1.000000
1.000000
1.000000
1.000000
1.000000
1.000000
1.000000
1.000000
1.000000
1.000000
1.000000
1.000000
1.000000
1.000000
1.000000
1.000000
1.000000
1.000000
1.000000
1.000000
1.000000
1.000000
1.000000
1.000000
1.000000
1.000000
1.000000
1.000000
1.000000
1.000000
1.000000
1.000000
1.000000
1.000000
1.000000
1.000000
1.000000
1.000000
1.000000
1.000000
1.000000
1.000000
1.000000
1.000000
1.000000
1.000000
1.000000
1.000000
1.000000
1.000000
1.000000
1.000000
1.000000
1.000000
1.000000
1.000000
1.000000
1.000000
1.000000
1.000000
1.000000
1.000000
1.000000
1.000000
1.000000
1.000000
1.000000
1.000000
1.000000
1.000000
1.000000
1.000000
1.000000
1.000000
1.000000
1.000000
1.000000
1.000000
1.000000
1.000000
1.000000
1.000000
1.000000
1.000000
1.000000
1.000000
1.000000
1.000000
1.000000
1.000000
1.000000
1.000000
1.000000
1.000000
1.000000
1.000000
1.000000
1.000000
1.000000
1.000000
1.000000
1.000000
1.000000
1.000000
1.000000
1.000000
1.000000
1.000000
1.000000
1.000000
1.000000
1.000000
1.000000
1.000000
1.000000
1.000000
1.000000
1.000000
1.000000
1.000000
1.000000
1.000000
1.000000
1.000000
1.000000
1.000000
1.000000
1.000000
1.000000
1.000000
1.000000
1.000000
1.000000
1.000000
1.000000
1.000000
1.000000
1.000000
1.000000
1.000000
1.000000
1.000000
1.000000
1.000000
1.000000
1.000000
1.000000
1.000000
1.000000
1.000000
1.000000
1.000000
1.000000
1.000000
1.000000
1.000000
1.000000
1.000000
1.000000
1.000000
1.000000
1.000000
1.000000
1.000000
1.000000
1.000000
1.000000
1.000000
1.000000
1.000000
1.000000
1.000000
1.000000
1.000000
1.000000
1.000000
1.000000
1.000000
1.000000
1.000000
1.000000
1.000000
1.000000
1.000000
1.000000
1.000000
1.000000
1.000000
1.000000
1.000000
1.000000
1.000000
1.000000
1.000000
1.000000
1.000000
1.000000
1.000000
1.000000
1.000000
1.000000
1.000000
1.000000
1.000000
1.000000
1.000000
1.000000
1.000000
1.000000
1.000000
1.000000
1.000000
1.000000
1.000000
1.000000
1.000000
1.000000
1.000000
1.000000
1.000000
1.000000
1.000000
1.000000
1.000000
1.000000
1.000000
1.000000
1.000000
1.000000
1.000000
1.000000
1.000000
1.000000
1.000000
1.000000
1.000000
1.000000
1.000000
1.000000
1.000000
1.000000
1.000000
1.000000
1.000000
1.000000
1.000000
1.000000
1.000000
1.000000
1.000000
1.000000
1.000000
1.000000
1.000000
1.000000
1.000000
1.000000
1.000000
1.000000
1.000000
1.000000
1.000000
1.000000
1.000000
1.000000
1.000000
1.000000
1.000000
1.000000
1.000000
1.000000
1.000000
1.000000
1.000000
1.000000
1.000000
1.000000
1.000000
1.000000
1.000000
1.000000
1.000000
1.000000
1.000000
1.000000
1.000000
1.000000
1.000000
1.000000
1.000000
1.000000
1.000000
1.000000
1.000000
1.000000
1.000000
1.000000
1.000000
1.000000
1.000000
1.000000
1.000000
1.000000
1.000000
1.000000
1.000000
1.000000
1.000000
1.000000
1.000000
1.000000
1.000000
1.000000
1.000000
1.000000
1.000000
1.000000
1.000000
1.000000
1.000000
1.000000
1.000000
1.000000
1.000000
1.000000
1.000000
1.000000
1.000000
1.000000
1.000000
1.000000
1.000000
1.000000
1.000000
1.000000
1.000000
1.000000
1.000000
1.000000
1.000000
1.000000
1.000000
1.000000
1.000000
1.000000
1.000000
1.000000
1.000000
1.000000
1.000000
1.000000
1.000000
1.000000
1.000000
1.000000
1.000000
1.000000
1.000000
1.000000
1.000000
1.000000
1.000000
1.000000
1.000000
1.000000
1.000000
1.000000
1.000000
1.000000
1.000000
1.000000
1.000000
1.000000
1.000000
1.000000
1.000000
1.000000
1.000000
1.000000
1.000000
1.000000
1.000000
1.000000
1.000000
1.000000
1.000000
1.000000
1.000000
1.000000
1.000000
1.000000
1.000000
1.000000
1.000000
1.000000
1.000000
1.000000
1.000000
1.000000
1.000000
1.000000
1.000000
1.000000
1.000000
1.000000
1.000000
1.000000
1.000000
1.000000
1.000000
1.000000
1.000000
1.000000
1.000000
1.000000
1.000000
1.000000
1.000000
1.000000
1.000000
1.000000
1.000000
1.000000
1.000000
1.000000
1.000000
1.000000
1.000000
1.000000
1.000000
1.000000
1.000000
1.000000
1.000000
1.000000
1.000000
1.000000
1.000000
1.000000
1.000000
1.000000
1.000000
1.000000
1.000000
1.000000
1.000000
1.000000
1.000000
1.000000
1.000000
1.000000
1.000000
1.000000
1.000000
1.000000
1.000000
1.000000
1.000000
1.000000
1.000000
1.000000
1.000000
1.000000
1.000000
1.000000
1.000000
1.000000
1.000000
1.000000
1.000000
1.000000
1.000000
1.000000
1.000000
1.000000
1.000000
1.000000
1.000000
1.000000
1.000000
1.000000
1.000000
1.000000
1.000000
1.000000
1.000000
1.000000
1.000000
1.000000
1.000000
1.000000
1.000000
1.000000
1.000000
1.000000
1.000000
1.000000
1.000000
1.000000
1.000000
1.000000
1.000000
1.000000
1.000000
1.000000
1.000000
1.000000
1.000000
1.000000
1.000000
1.000000
1.000000
1.000000
1.000000
1.000000
1.000000
1.000000
1.000000
1.000000
1.000000
1.000000
1.000000
1.000000
1.000000
1.000000
1.000000
1.000000
1.000000
1.000000
1.000000
1.000000
1.000000
1.000000
1.000000
1.000000
1.000000
1.000000
1.000000
1.000000
1.000000
1.000000
1.000000
1.000000
1.000000
1.000000
1.000000
1.000000
1.000000
1.000000
1.000000
1.000000
1.000000
1.000000
1.000000
1.000000
1.000000
1.000000
1.000000
1.000000
1.000000
1.000000
1.000000
1.000000
1.000000
1.000000
1.000000
1.000000
1.000000
1.000000
1.000000
1.000000
1.000000
1.000000
1.000000
1.000000
1.000000
1.000000
1.000000
1.000000
1.000000
1.000000
1.000000
1.000000
1.000000
1.000000
1.000000
1.000000
1.000000
1.000000
1.000000
1.000000
1.000000
1.000000
1.000000
1.000000
1.000000
1.000000
1.000000
1.000000
1.000000
1.000000
1.000000
1.000000
1.000000
1.000000
1.000000
1.000000
1.000000
1.000000
1.000000
1.000000
1.000000
1.000000
1.000000
1.000000
1.000000
1.000000
1.000000
1.000000
1.000000
1.000000
1.000000
1.000000
1.000000
1.000000
1.000000
1.000000
1.000000
1.000000
1.000000
1.000000
1.000000
1.000000
1.000000
1.000000
1.000000
1.000000
1.000000
1.000000
1.000000
1.000000
1.000000
1.000000
1.000000
1.000000
1.000000
1.000000
1.000000
1.000000
1.000000
1.000000
1.000000
1.000000
1.000000
1.000000
1.000000
1.000000
1.000000
1.000000
1.000000
1.000000
1.000000
1.000000
1.000000
1.000000
1.000000
1.000000
1.000000
1.000000
1.000000
1.000000
1.000000
1.000000
1.000000
1.000000
1.000000
1.000000
1.000000
1.000000
1.000000
1.000000
1.000000
1.000000
1.000000
1.000000
1.000000
1.000000
1.000000
1.000000
1.000000
1.000000
1.000000
1.000000
1.000000
1.000000
1.000000
1.000000
1.000000
1.000000
1.000000
1.000000
1.000000
1.000000
1.000000
1.000000
1.000000
1.000000
1.000000
1.000000
1.000000
1.000000
1.000000
1.000000
1.000000
1.000000
1.000000
1.000000
1.000000
1.000000
1.000000
1.000000
1.000000
1.000000
1.000000
1.000000
1.000000
1.000000
1.000000
1.000000
1.000000
1.000000
1.000000
1.000000
1.000000
1.000000
1.000000
1.000000
1.000000
1.000000
1.000000
1.000000
1.000000
1.000000
1.000000
1.000000
1.000000
1.000000
1.000000
1.000000
1.000000
1.000000
1.000000
1.000000
1.000000
1.000000
1.000000
1.000000
1.000000
1.000000
1.000000
1.000000
1.000000
1.000000
1.000000
1.000000
1.000000
1.000000
1.000000
1.000000
1.000000
1.000000
1.000000
1.000000
1.000000
1.000000
1.000000
1.000000
1.000000
1.000000
1.000000
1.000000
1.000000
1.000000
1.000000
1.000000
1.000000
1.000000
1.000000
1.000000
1.000000
1.000000
1.000000
1.000000
1.000000
1.000000
1.000000
1.000000
1.000000
1.000000
1.000000
1.000000
1.000000
1.000000
1.000000
1.000000
1.000000
1.000000
1.000000
1.000000
1.000000
1.000000
1.000000
1.000000
1.000000
1.000000
1.000000
1.000000
1.000000
1.000000
1.000000
1.000000
1.000000
1.000000
1.000000
1.000000
1.000000
1.000000
1.000000
1.000000
1.000000
1.000000
1.000000
1.000000
1.000000
1.000000
1.000000
1.000000
1.000000
1.000000
1.000000
1.000000
1.000000
1.000000
1.000000
1.000000
1.000000
1.000000
1.000000
1.000000
1.000000
1.000000
1.000000
1.000000
1.000000
1.000000
1.000000
1.000000
1.000000
1.000000
1.000000
1.000000
1.000000
1.000000
1.000000
1.000000
1.000000
1.000000
1.000000
1.000000
1.000000
1.000000
1.000000
1.000000
1.000000
1.000000
1.000000
1.000000
1.000000
1.000000
1.000000
1.000000
1.000000
1.000000
1.000000
1.000000
1.000000
1.000000
1.000000
1.000000
1.000000
1.000000
1.000000
1.000000
1.000000
1.000000
1.000000
1.000000
1.000000
1.000000
1.000000
1.000000
1.000000
1.000000
1.000000
1.000000
1.000000
1.000000
1.000000
1.000000
1.000000
1.000000
1.000000
1.000000
1.000000
1.000000
1.000000
1.000000
1.000000
1.000000
1.000000
1.000000
1.000000
1.000000
1.000000
1.000000
1.000000
1.000000
1.000000
1.000000
1.000000
1.000000
1.000000
1.000000
1.000000
1.000000
1.000000
1.000000
1.000000
1.000000
1.000000
1.000000
1.000000
1.000000
1.000000
1.000000
1.000000
1.000000
1.000000
1.000000
1.000000
1.000000
1.000000
1.000000
1.000000
1.000000
1.000000
1.000000
1.000000
1.000000
1.000000
1.000000
1.000000
1.000000
1.000000
1.000000
1.000000
1.000000
1.000000
1.000000
1.000000
1.000000
1.000000
1.000000
1.000000
1.000000
1.000000
1.000000
1.000000
1.000000
1.000000
1.000000
1.000000
1.000000
1.000000
1.000000
1.000000
1.000000
1.000000
1.000000
1.000000
1.000000
1.000000
1.000000
1.000000
1.000000
1.000000
1.000000
1.000000
1.000000
1.000000
1.000000
1.000000
1.000000
1.000000
1.000000
1.000000
1.000000
1.000000
1.000000
1.000000
1.000000
1.000000
1.000000
1.000000
1.000000
1.000000
1.000000
1.000000
1.000000
1.000000
1.000000
1.000000
1.000000
1.000000
1.000000
1.000000
1.000000
1.000000
1.000000
1.000000
1.000000
1.000000
1.000000
1.000000
1.000000
1.000000
1.000000
1.000000
1.000000
1.000000
1.000000
1.000000
1.000000
1.000000
1.000000
1.000000
1.000000
1.000000
1.000000
1.000000
1.000000
1.000000
1.000000
1.000000
1.000000
1.000000
1.000000
1.000000
1.000000
1.000000
1.000000
1.000000
1.000000
1.000000
1.000000
1.000000
1.000000
1.000000
1.000000
1.000000
1.000000
1.000000
1.000000
1.000000
1.000000
1.000000
1.000000
1.000000
1.000000
1.000000
1.000000
1.000000
1.000000
1.000000
1.000000
1.000000
1.000000
1.000000
1.000000
1.000000
1.000000
1.000000
1.000000
1.000000
1.000000
1.000000
1.000000
1.000000
1.000000
1.000000
1.000000
1.000000
1.000000
1.000000
1.000000
1.000000
1.000000
1.000000
1.000000
1.000000
1.000000
1.000000
1.000000
1.000000
1.000000
1.000000
1.000000
1.000000
1.000000
1.000000
1.000000
1.000000
1.000000
1.000000
1.000000
1.000000
1.000000
1.000000
1.000000
1.000000
1.000000
1.000000
1.000000
1.000000
1.000000
VECTORS v double
3.620659 -7.200302 0.000000
-2.531913 -4.480141 0.000000
-7.887927 -2.897612 0.000000
2.885831 14.835718 0.000000
-3.945964 -4.698674 0.000000
2.965349 4.865119 0.000000
5.493415 6.963595 0.000000
-3.239755 3.944461 0.000000
-6.005464 9.246872 0.000000
9.994717 0.079997 0.000000
10.045003 0.000550 0.000000
10.045184 -0.000005 0.000000
10.045183 0.000000 0.000000
10.045181 -0.000000 0.000000
10.045029 -0.000527 0.000000
10.006328 -0.072099 0.000000
5.682311 4.297874 0.000000
2.246753 -8.819483 0.000000
-2.479436 9.022115 0.000000
1.472426 -2.047492 0.000000
6.755851 5.461239 0.000000
-7.243707 7.994251 0.000000
1.767059 -2.344835 0.000000
5.549103 7.272587 0.000000
-4.922630 10.318904 0.000000
2.634659 -13.726701 0.000000
-9.465179 3.326266 0.000000
5.448518 -9.774058 0.000000
-0.875258 -10.372339 0.000000
-0.010739 5.141295 0.000000
-5.867485 0.459909 0.000000
-5.919993 3.443890 0.000000
3.035202 13.722562 0.000000
-2.233493 2.209278 0.000000
10.024461 -0.117155 0.000000
-10.036936 0.070499 0.000000
-10.046082 -0.000052 0.000000
-10.046149 0.000005 0.000000
-10.046114 0.000041 0.000000
-10.042494 -0.062441 0.000000
9.994270 0.106719 0.000000
10.441547 3.711857 0.000000
1.351401 -9.406538 0.000000
0.001078 -16.915532 0.000000
6.433949 5.481440 0.000000
-2.861182 11.866315 0.000000
0.071981 -2.450106 0.000000
5.460096 9.764654 0.000000
-9.569793 -3.369890 0.000000
2.634659 13.726701 0.000000
0.168354 -9.230910 0.000000
6.191277 -1.367584 0.000000
5.209165 -4.965168 0.000000
-10.316519 9.155000 0.000000
10.035922 -0.320061 0.000000
-5.797424 -4.595960 0.000000
7.204499 -2.558283 0.000000
-6.591822 -5.437322 0.000000
-3.085738 -6.796606 0.000000
3.254240 7.937740 0.000000
12.167870 11.013796 0.000000
10.042979 -0.000319 0.000000
10.042786 -0.000014 0.000000
10.042599 -0.000016 0.000000
10.050199 0.131694 0.000000
1.769879 -10.583428 0.000000
-10.044534 0.324810 0.000000
4.172203 -4.048824 0.000000
12.891249 3.326414 0.000000
5.502796 -5.846195 0.000000
-1.587379 2.527873 0.000000
-6.971766 -11.174503 0.000000
-5.321601 -3.404865 0.000000
4.665776 1.428766 0.000000
0.173334 9.210523 0.000000
-0.505056 -3.679023 0.000000
6.835164 -10.619163 0.000000
-1.427307 9.347881 0.000000
6.298417 -2.001683 0.000000
2.283875 -10.259424 0.000000
12.945789 -5.959748 0.000000
-9.950223 0.732537 0.000000
7.372044 3.378315 0.000000
3.610209 4.101566 0.000000
-10.072780 -0.340076 0.000000
18.010681 7.031924 0.000000
-10.040515 -0.020055 0.000000
-10.045457 -0.000043 0.000000
-10.039205 0.018222 0.000000
10.016260 0.269389 0.000000
-10.024311 0.140117 0.000000
3.427185 -3.891472 0.000000
-4.029384 -10.856424 0.000000
-10.722169 1.670616 0.000000
-9.213446 -2.525433 0.000000
15.287601 -5.394441 0.000000
4.135764 7.183212 0.000000
-5.958066 -9.267796 0.000000
6.835169 10.619163 0.000000
-0.505039 3.679073 0.000000
0.378112 -7.095053 0.000000
-3.786372 5.246406 0.000000
9.960771 -10.608316 0.000000
8.879102 9.388167 0.000000
-6.418388 8.137447 0.000000
-5.852998 14.035233 0.000000
11.377987 4.442147 0.000000
-8.045020 -2.161313 0.000000
2.855311 -5.248073 0.000000
-5.148490 -0.774844 0.000000
-7.689085 5.732252 0.000000
9.997559 0.013127 0.000000
9.983945 0.044782 0.000000
10.040617 -0.026820 0.000000
-8.738410 -10.328233 0.000000
1.184556 -7.949525 0.000000
-1.929711 -1.268664 0.000000
-7.984777 2.305999 0.000000
-4.266524 6.086555 0.000000
2.737926 -5.434521 0.000000
-5.871843 0.062684 0.000000
-5.592467 -1.917750 0.000000
9.796030 6.227156 0.000000
8.242750 -4.217528 0.000000
-5.211020 7.589717 0.000000
-1.114194 -6.328438 0.000000
-1.995968 -10.926464 0.000000
5.568491 10.001071 0.000000
1.738505 -9.172910 0.000000
-6.260928 -0.531428 0.000000
-3.146236 -8.411049 0.000000
-7.879828 -3.084588 0.000000
-3.202714 6.180351 0.000000
-9.989654 1.534552 0.000000
12.449451 5.993808 0.000000
-17.097212 2.985933 0.000000
9.886794 -0.225941 0.000000
-4.203498 13.500690 0.000000
-11.265023 -6.269601 0.000000
0.847967 -15.733311 0.000000
8.669748 -2.583838 0.000000
-9.941362 -1.484819 0.000000
7.427384 -2.644259 0.000000
-4.492935 -1.467487 0.000000
-9.433995 -4.338292 0.000000
-1.344301 -4.617205 0.000000
12.056464 -10.491720 0.000000
-0.685449 -0.506755 0.000000
-1.995529 10.926590 0.000000
-1.114207 6.328463 0.000000
-5.239767 -5.411571 0.000000
1.750986 3.534013 0.000000
4.104483 -6.754946 0.000000
4.354963 -2.364038 0.000000
-1.618459 14.276374 0.000000
-3.543655 10.373890 0.000000
-5.902665 3.323032 0.000000
15.424616 -0.063606 0.000000
-11.331721 -8.288791 0.000000
-9.969055 0.968001 0.000000
-9.956896 -1.064338 0.000000
-7.040032 7.112860 0.000000
14.068305 -2.470623 0.000000
5.014149 -0.105177 0.000000
-8.227905 7.272879 0.000000
-9.959808 -0.967025 0.000000
-9.199894 10.074250 0.000000
14.128672 -4.241198 0.000000
-4.776940 9.042285 0.000000
-14.088207 -3.041645 0.000000
-4.371230 10.114469 0.000000
2.557443 -9.949818 0.000000
8.898586 3.235007 0.000000
4.628230 9.500172 0.000000
-1.375495 4.655867 0.000000
4.837053 -9.997753 0.000000
-7.407232 -2.389849 0.000000
10.503108 -0.620565 0.000000
-5.008714 5.068097 0.000000
-8.706930 1.511222 0.000000
-2.521307 -4.767412 0.000000
5.120908 11.033525 0.000000
10.676342 6.731680 0.000000
10.127292 -1.120394 0.000000
9.969129 -0.864109 0.000000
-9.194364 4.569695 0.000000
3.149125 -5.626338 0.000000
-10.045546 -0.000422 0.000000
-10.003536 -0.011108 0.000000
12.684468 -7.801688 0.000000
9.966076 0.768448 0.000000
10.142809 1.076195 0.000000
14.392256 -4.719602 0.000000
3.831219 -6.497634 0.000000
-3.398058 -5.874541 0.000000
8.105534 -12.713006 0.000000
11.500072 1.251216 0.000000
1.711379 3.638130 0.000000
4.865309 -5.896792 0.000000
4.837053 9.997753 0.000000
-2.993634 -4.384011 0.000000
-9.861672 -1.601627 0.000000
-5.067114 -11.704098 0.000000
14.525015 0.721974 0.000000
-7.262229 7.464648 0.000000
1.322672 -3.178777 0.000000
-11.777909 3.247671 0.000000
2.115980 -9.423009 0.000000
-4.524316 2.946208 0.000000
-9.997880 -0.010449 0.000000
10.317180 -4.011226 0.000000
10.021412 -0.013664 0.000000
10.036518 0.000047 0.000000
10.039878 0.023987 0.000000
-9.332171 1.949723 0.000000
-9.994305 0.018282 0.000000
-10.132276 -10.999980 0.000000
-4.169231 9.201204 0.000000
-9.979233 -1.235424 0.000000
-8.545569 -5.307538 0.000000
-7.298552 -7.309746 0.000000
-4.477260 11.945583 0.000000
0.283474 12.067937 0.000000
-9.929154 1.527981 0.000000
0.527682 8.076437 0.000000
1.493673 -1.198195 0.000000
-3.933264 -8.257645 0.000000
1.152155 -1.198124 0.000000
-2.836603 -0.108539 0.000000
-12.722169 4.165003 0.000000
-1.798225 -7.401841 0.000000
3.403936 2.610836 0.000000
-16.765784 2.503996 0.000000
-2.316371 11.054421 0.000000
-1.937374 7.847882 0.000000
-9.589856 0.296923 0.000000
-10.039153 -0.000080 0.000000
-10.039464 0.000011 0.000000
-10.043507 0.009768 0.000000
-9.996049 0.012308 0.000000
3.278011 -10.921933 0.000000
-1.668745 -9.875589 0.000000
-11.269642 5.070515 0.000000
-12.099867 -2.087337 0.000000
-6.819815 6.810541 0.000000
1.816262 9.959598 0.000000
-0.125571 1.015888 0.000000
-4.368978 1.268390 0.000000
-3.933263 8.257641 0.000000
1.357158 0.815984 0.000000
9.766068 -4.342244 0.000000
4.737561 -6.713184 0.000000
-2.300212 -10.650530 0.000000
-2.308882 -1.720204 0.000000
-4.970592 -1.551515 0.000000
2.291265 -0.001331 0.000000
-5.985470 -5.556969 0.000000
-3.986387 12.877607 0.000000
-10.006355 0.031630 0.000000
13.024828 15.608579 0.000000
10.044240 -0.010981 0.000000
10.037039 0.000015 0.000000
10.037055 -0.000000 0.000000
10.036902 -0.000009 0.000000
10.039313 0.009930 0.000000
12.610349 -14.457512 0.000000
-10.003344 -0.037638 0.000000
-4.428649 -11.062668 0.000000
-6.663418 -0.588869 0.000000
4.325742 -9.421383 0.000000
7.123385 -1.778574 0.000000
-7.690995 6.502956 0.000000
-9.849667 -5.440925 0.000000
1.925443 -5.492791 0.000000
2.657358 4.790187 0.000000
-7.981848 -7.190831 0.000000
-9.767361 -5.480076 0.000000
9.116616 5.014032 0.000000
-10.812891 0.002337 0.000000
2.489639 3.574606 0.000000
13.708862 6.747727 0.000000
-9.442489 3.093119 0.000000
-10.072615 0.137703 0.000000
-9.996783 -0.123842 0.000000
-10.002973 0.007163 0.000000
-10.045985 -0.036952 0.000000
-10.037730 -0.000012 0.000000
-10.037728 0.000001 0.000000
-10.037736 0.000014 0.000000
-10.042650 0.019980 0.000000
-10.004135 -0.009608 0.000000
-9.996723 0.126645 0.000000
-1.602351 -8.847773 0.000000
4.837939 -3.920612 0.000000
-7.799331 6.500967 0.000000
-1.129804 7.713364 0.000000
-11.249724 0.294536 0.000000
4.249219 -3.997505 0.000000
-9.743412 5.558185 0.000000
-7.981585 7.191180 0.000000
-9.997106 0.098501 0.000000
-6.152361 -8.690173 0.000000
3.673939 1.007995 0.000000
9.346631 -0.272312 0.000000