# vtk DataFile Version 4.0
hesp visualization file
ASCII
DATASET UNSTRUCTURED_GRID
POINTS 1250 double
33.756004 3.378574 4.000000
30.737896 0.963173 4.000000
35.730401 4.829964 4.000000
33.499808 6.117791 4.000000
32.042888 6.302562 4.000000
30.369461 9.509260 4.000000
31.408182 10.350701 4.000000
30.854115 9.668876 4.000000
30.377402 10.727743 4.000000
30.579794 11.232444 4.000000
30.540873 12.346540 4.000000
30.540299 13.469545 4.000000
30.540295 14.592007 4.000000
30.540299 15.714468 4.000000
30.540661 16.837405 4.000000
30.580483 17.952311 4.000000
31.120090 19.463342 4.000000
30.667733 18.954823 4.000000
31.288683 20.629084 4.000000
30.181912 20.022417 4.000000
33.125762 24.661852 4.000000
30.330108 26.666670 4.000000
33.673859 24.258743 4.000000
31.387473 28.561305 4.000000
32.759353 27.072114 4.000000
30.390437 -9.193180 4.000000
33.029432 2.207189 4.000000
31.563959 -1.648104 4.000000
30.627126 5.319504 4.000000
30.179881 5.899298 4.000000
30.263897 7.227922 4.000000
30.125866 7.628370 4.000000
31.947430 11.034168 4.000000
31.624192 12.167574 4.000000
31.703370 11.213581 4.000000
30.785848 12.351032 4.000000
30.785818 13.469542 4.000000
30.785817 14.592007 4.000000
30.785818 15.714471 4.000000
30.785828 16.833463 4.000000
31.702251 17.969636 4.000000
32.928130 18.679243 4.000000
30.948906 18.140957 4.000000
32.348685 18.941305 4.000000
30.533972 23.829912 4.000000
30.136514 24.070277 4.000000
31.968051 24.120318 4.000000
31.569185 30.827997 4.000000
33.033588 26.964595 4.000000
30.390437 38.377193 4.000000
31.845296 -1.197898 4.000000
32.400906 3.972914 4.000000
32.147082 4.208543 4.000000
32.595360 6.879551 4.000000
32.931129 5.481195 4.000000
30.982978 9.224304 4.000000
32.699404 10.807162 4.000000
31.230090 7.042841 4.000000
31.762321 9.687033 4.000000
32.662342 12.433720 4.000000
31.946713 12.559555 4.000000
31.867105 13.469673 4.000000
31.866818 14.592006 4.000000
31.867307 15.714319 4.000000
31.889652 16.825034 4.000000
32.070340 16.991165 4.000000
31.356253 19.121683 4.000000
32.377678 21.700297 4.000000
33.094047 17.554215 4.000000
30.243624 20.636065 4.000000
30.919765 24.087480 4.000000
34.767029 21.806137 4.000000
32.491596 22.649719 4.000000
33.593683 25.364869 4.000000
31.846671 30.378381 4.000000
31.540369 -2.351589 4.000000
31.607369 -4.897129 4.000000
31.576116 3.751232 4.000000
34.133385 3.425216 4.000000
32.588911 2.731298 4.000000
31.062597 5.477928 4.000000
32.482786 8.986112 4.000000
31.419169 9.720615 4.000000
34.314782 10.811102 4.000000
32.477614 11.205320 4.000000
33.263345 12.557690 4.000000
32.111561 13.468571 4.000000
32.111521 14.592005 4.000000
32.111572 15.715489 4.000000
33.031101 16.845709 4.000000
32.478399 17.973298 4.000000
34.272123 18.401305 4.000000
31.072178 18.422065 4.000000
32.558907 20.441420 4.000000
30.547692 21.055459 4.000000
34.887239 24.343517 4.000000
34.001443 25.949286 4.000000
30.932216 25.433172 4.000000
31.607372 34.081142 4.000000
31.540370 31.535604 4.000000
34.304855 2.300952 4.000000
31.374722 4.707790 4.000000
31.905213 0.175457 4.000000
35.636634 7.149987 4.000000
30.775534 8.609590 4.000000
30.272461 8.394912 4.000000
33.215097 7.823233 4.000000
31.654418 8.525530 4.000000
31.738060 8.970592 4.000000
32.729349 11.953224 4.000000
32.366747 12.940615 4.000000
33.231841 13.470337 4.000000
33.159116 14.682262 4.000000
33.214874 15.723608 4.000000
32.359198 16.894796 4.000000
33.429052 16.462360 4.000000
31.497679 19.691909 4.000000
31.665115 20.672523 4.000000
32.778912 22.565182 4.000000
31.412023 20.904729 4.000000
30.893658 22.398183 4.000000
35.831981 23.974722 4.000000
31.912097 28.713546 4.000000
32.342518 24.623037 4.000000
32.537319 26.319827 4.000000
30.648779 -2.434145 4.000000
32.212572 -3.811826 4.000000
36.640086 7.223730 4.000000
30.828505 6.523909 4.000000
33.217575 7.027864 4.000000
31.663143 5.812470 4.000000
31.958326 7.884125 4.000000
32.471865 9.806569 4.000000
33.597933 10.157047 4.000000
34.591597 12.880291 4.000000
33.266367 14.356909 4.000000
34.346097 13.455468 4.000000
33.495788 14.821832 4.000000
33.395504 15.562639 4.000000
34.205014 14.493017 4.000000
34.041803 15.914540 4.000000
33.606955 19.028862 4.000000
32.829682 19.519557 4.000000
32.003964 21.108815 4.000000
30.316436 21.446359 4.000000
33.937057 20.700701 4.000000
30.250133 20.898601 4.000000
36.660403 24.340656 4.000000
32.212784 32.995898 4.000000
30.648777 31.618161 4.000000
31.016523 1.552049 4.000000
36.638086 3.609977 4.000000
31.447434 0.683688 4.000000
34.175035 4.662702 4.000000
31.067689 8.484385 4.000000
32.296237 7.915370 4.000000
34.262440 7.824460 4.000000
34.955839 9.127601 4.000000
32.836976 8.697615 4.000000
33.603880 11.258911 4.000000
33.608809 12.236852 4.000000
34.578799 13.676629 4.000000
34.532255 14.542514 4.000000
34.245824 15.721244 4.000000
33.797164 17.623381 4.000000
33.604067 17.925490 4.000000
32.874176 20.575333 4.000000
34.846132 19.693144 4.000000
33.711407 23.079825 4.000000
31.600784 21.255261 4.000000
31.815903 22.849684 4.000000
33.657220 22.280083 4.000000
30.816926 27.054518 4.000000
36.663534 25.887186 4.000000
31.506297 27.382896 4.000000
38.519176 -5.914436 4.000000
34.609186 2.023503 4.000000
36.370232 1.765998 4.000000
32.877565 7.172228 4.000000
34.841820 5.563873 4.000000
33.103667 6.431140 4.000000
35.861313 9.967177 4.000000
36.732083 9.453290 4.000000
34.180361 10.094329 4.000000
34.351759 11.201056 4.000000
34.774356 12.628338 4.000000
34.951460 13.375193 4.000000
34.811746 14.603501 4.000000
34.725796 15.713851 4.000000
36.160708 16.126271 4.000000
34.352011 17.980273 4.000000
34.181968 19.088519 4.000000
37.031354 19.793181 4.000000
35.818834 19.749177 4.000000
32.973876 22.217498 4.000000
35.223044 21.759468 4.000000
33.212740 22.722497 4.000000
36.085733 27.510909 4.000000
35.156076 24.068174 4.000000
38.519176 35.098450 4.000000
32.092663 2.562896 4.000000
31.705981 1.605623 4.000000
36.696528 0.886070 4.000000
36.641281 5.009212 4.000000
33.949043 7.689944 4.000000
34.994727 7.112592 4.000000
33.980959 8.047429 4.000000
36.756175 10.600148 4.000000
34.862512 10.514881 4.000000
34.930183 11.223957 4.000000
35.998159 12.096966 4.000000
35.847423 13.468796 4.000000
35.847554 14.592009 4.000000
35.847499 15.715430 4.000000
34.968951 16.950274 4.000000
34.930607 17.960639 4.000000
34.702615 18.396888 4.000000
36.431164 18.598134 4.000000
34.029559 21.106565 4.000000
34.340771 21.457441 4.000000
33.963557 21.458653 4.000000
37.006589 24.776693 4.000000
37.265266 28.362906 4.000000
31.706117 27.575672 4.000000
33.070401 27.685866 4.000000
32.288008 0.828860 4.000000
34.043645 -2.884404 4.000000
35.860080 2.348067 4.000000
35.912823 4.489153 4.000000
35.455013 7.425753 4.000000
35.862329 6.828050 4.000000
37.205139 7.979767 4.000000
34.552644 10.081480 4.000000
35.879551 11.179410 4.000000
36.353086 11.650898 4.000000
36.099260 12.398142 4.000000
36.087838 13.469638 4.000000
36.088756 14.592007 4.000000
36.088674 15.714683 4.000000
36.053033 16.837251 4.000000
36.513286 17.156594 4.000000
35.910905 18.156239 4.000000
34.775684 19.430013 4.000000
36.281601 20.351062 4.000000
36.529565 22.475098 4.000000
36.285680 22.238568 4.000000
35.927906 24.931568 4.000000
35.693844 26.827913 4.000000
34.043646 32.068415 4.000000
32.263935 28.290828 4.000000
30.236978 0.004867 4.000000
35.956468 1.475729 4.000000
36.256769 3.518481 4.000000
34.853206 3.038396 4.000000
38.238450 5.388555 4.000000
36.471697 7.528462 4.000000
35.738624 8.420987 4.000000
35.675162 10.733313 4.000000
36.256716 10.105213 4.000000
37.592767 12.127054 4.000000
37.174281 12.346808 4.000000
37.174476 13.469546 4.000000
37.174476 14.592007 4.000000
37.174475 15.714467 4.000000
37.174452 16.837163 4.000000
37.568834 17.122287 4.000000
36.256857 19.078603 4.000000
35.579826 18.578280 4.000000
35.791689 20.341767 4.000000
37.337950 21.316145 4.000000
39.239333 24.153183 4.000000
34.089249 26.534854 4.000000
36.609550 23.871631 4.000000
35.423732 26.740114 4.000000
30.219326 29.258707 4.000000
32.330983 -0.531510 4.000000
35.073359 -0.010112 4.000000
38.037503 8.338695 4.000000
34.744689 3.685268 4.000000
37.494375 6.491255 4.000000
38.896205 6.639399 4.000000
36.740025 7.533183 4.000000
36.459073 8.982405 4.000000
37.379945 10.095212 4.000000
37.379756 11.224796 4.000000
37.415328 12.347388 4.000000
37.415526 13.469544 4.000000
37.415528 14.592007 4.000000
37.415522 15.714469 4.000000
37.415538 16.837558 4.000000
37.379730 17.959165 4.000000
37.379948 19.088954 4.000000
36.583182 20.082221 4.000000
37.682390 21.596893 4.000000
37.907818 23.493304 4.000000
36.304884 24.076947 4.000000
34.637823 25.571195 4.000000
37.476811 21.058669 4.000000
35.078295 29.211163 4.000000
32.331017 29.715567 4.000000
32.992294 1.143471 4.000000
34.130455 0.497616 4.000000
38.959671 2.860809 4.000000
39.013529 5.484031 4.000000
38.172356 6.214467 4.000000
36.927070 6.463207 4.000000
38.950003 8.718688 4.000000
37.584083 8.979790 4.000000
38.501266 10.107673 4.000000
38.501272 11.224622 4.000000
38.501276 12.347080 4.000000
38.501277 13.469544 4.000000
38.501277 14.592007 4.000000
38.501277 15.714469 4.000000
38.501276 16.836933 4.000000
38.501272 17.959394 4.000000
38.501268 19.076225 4.000000
37.584099 20.204163 4.000000
38.919691 20.446949 4.000000
36.889254 22.753660 4.000000
37.700941 22.014659 4.000000
37.707443 23.711694 4.000000
38.905385 26.253673 4.000000
34.157209 28.712146 4.000000
32.992147 28.039618 4.000000
33.734239 -0.148180 4.000000
37.329711 2.093558 4.000000
35.855155 1.917385 4.000000
36.195766 4.552952 4.000000
36.804095 4.834455 4.000000
39.243159 6.435215 4.000000
37.780677 7.873174 4.000000
38.705940 8.976666 4.000000
38.742275 10.101487 4.000000
38.742815 11.224620 4.000000
38.742847 12.347083 4.000000
38.742851 13.469545 4.000000
38.742851 14.592007 4.000000
38.742851 15.714469 4.000000
38.742848 16.836931 4.000000
38.742817 17.959392 4.000000
38.742275 19.082541 4.000000
38.704597 20.202465 4.000000
37.781682 21.315919 4.000000
[...]
POINT_DATA 1250
SCALARS m double
LOOKUP_TABLE default
1.000000
1.000000
1.000000
1.000000
1.000000
1.000000
1.000000
1.000000
1.000000
1.000000
1.000000
1.000000
1.000000
1.000000
1.000000
1.000000
1.000000
1.000000
1.000000
1.000000
1.000000
1.000000
1.000000
1.000000
1.000000
1.000000
1.000000
1.000000
1.000000
1.000000
1.000000
1.000000
1.000000
1.000000
1.000000
1.000000
1.000000
1.000000
1.000000
1.000000
1.000000
1.000000
1.000000
1.000000
1.000000
1.000000
1.000000
1.000000
1.000000
1.000000
1.000000
1.000000
1.000000
1.000000
1.000000
1.000000
1.000000
1.000000
1.000000
1.000000
1.000000
1.000000
1.000000
1.000000
1.000000
1.000000
1.000000
1.000000
1.000000
1.000000
1.000000
1.000000
1.000000
1.000000
1.000000
1.000000
1.000000
1.000000
1.000000
1.000000
1.000000
1.000000
1.000000
1.000000
1.000000
1.000000
1.000000
1.000000
1.000000
1.000000
1.000000
1.000000
1.000000
1.000000
1.000000
1.000000
1.000000
1.000000
1.000000
1.000000
1.000000
1.000000
1.000000
1.000000
1.000000
1.000000
1.000000
1.000000
1.000000
1.000000
1.000000
1.000000
1.000000
1.000000
1.000000
1.000000
1.000000
1.000000
1.000000
1.000000
1.000000
1.000000
1.000000
1.000000
1.000000
1.000000
1.000000
1.000000
1.000000
1.000000
1.000000
1.000000
1.000000
1.000000
1.000000
1.000000
1.000000
1.000000
1.000000
1.000000
1.000000
1.000000
1.000000
1.000000
1.000000
1.000000
1.000000
1.000000
1.000000
1.000000
1.000000
1.000000
1.000000
1.000000
1.000000
1.000000
1.000000
1.000000
1.000000
1.000000
1.000000
1.000000
1.000000
1.000000
1.000000
1.000000
1.000000
1.000000
1.000000
1.000000
1.000000
1.000000
1.000000
1.000000
1.000000
1.000000
1.000000
1.000000
1.000000
1.000000
1.000000
1.000000
1.000000
1.000000
1.000000
1.000000
1.000000
1.000000
1.000000
1.000000
1.000000
1.000000
1.000000
1.000000
1.000000
1.000000
1.000000
1.000000
1.000000
1.000000
1.000000
1.000000
1.000000
1.000000
1.000000
1.000000
1.000000
1.000000
1.000000
1.000000
1.000000
1.000000
1.000000
1.000000
1.000000
1.000000
1.000000
1.000000
1.000000
1.000000
1.000000
1.000000
1.000000
1.000000
1.000000
1.000000
1.000000
1.000000
1.000000
1.000000
1.000000
1.000000
1.000000
1.000000
1.000000
1.000000
1.000000
1.000000
1.000000
1.000000
1.000000
1.000000
1.000000
1.000000
1.000000
1.000000
1.000000
1.000000
1.000000
1.000000
1.000000
1.000000
1.000000
1.000000
1.000000
1.000000
1.000000
1.000000
1.000000
1.000000
1.000000
1.000000
1.000000
1.000000
1.000000
1.000000
1.000000
1.000000
1.000000
1.000000
1.000000
1.000000
1.000000
1.000000
1.000000
1.000000
1.000000
1.000000
1.000000
1.000000
1.000000
1.000000
1.000000
1.000000
1.000000
1.000000
1.000000
1.000000
1.000000
1.000000
1.000000
1.000000
1.000000
1.000000
1.000000
1.000000
1.000000
1.000000
1.000000
1.000000
1.000000
1.000000
1.000000
1.000000
1.000000
1.000000
1.000000
1.000000
1.000000
1.000000
1.000000
1.000000
1.000000
1.000000
1.000000
1.000000
1.000000
1.000000
1.000000
1.000000
1.000000
1.000000
1.000000
1.000000
1.000000
1.000000
1.000000
1.000000
1.000000
1.000000
1.000000
1.000000
1.000000
1.000000
1.000000
1.000000
1.000000
1.000000
1.000000
1.000000
1.000000
1.000000
1.000000
1.000000
1.000000
1.000000
1.000000
1.000000
1.000000
1.000000
1.000000
1.000000
1.000000
1.000000
1.000000
1.000000
1.000000
1.000000
1.000000
1.000000
1.000000
1.000000
1.000000
1.000000
1.000000
1.000000
1.000000
1.000000
1.000000
1.000000
1.000000
1.000000
1.000000
1.000000
1.000000
1.000000
1.000000
1.000000
1.000000
1.000000
1.000000
1.000000
1.000000
1.000000
1.000000
1.000000
1.000000
1.000000
1.000000
1.000000
1.000000
1.000000
1.000000
1.000000
1.000000
1.000000
1.000000
1.000000
1.000000
1.000000
1.000000
1.000000
1.000000
1.000000
1.000000
1.000000
1.000000
1.000000
1.000000
1.000000
1.000000
1.000000
1.000000
1.000000
1.000000
1.000000
1.000000
1.000000
1.000000
1.000000
1.000000
1.000000
1.000000
1.000000
1.000000
1.000000
1.000000
1.000000
1.000000
1.000000
1.000000
1.000000
1.000000
1.000000
1.000000
1.000000
1.000000
1.000000
1.000000
1.000000
1.000000
1.000000
1.000000
1.000000
1.000000
1.000000
1.000000
1.000000
1.000000
1.000000
1.000000
1.000000
1.000000
1.000000
1.000000
1.000000
1.000000
1.000000
1.000000
1.000000
1.000000
1.000000
1.000000
1.000000
1.000000
1.000000
1.000000
1.000000
1.000000
1.000000
1.000000
1.000000
1.000000
1.000000
1.000000
1.000000
1.000000
1.000000
1.000000
1.000000
1.000000
1.000000
1.000000
1.000000
1.000000
1.000000
1.000000
1.000000
1.000000
1.000000
1.000000
1.000000
1.000000
1.000000
1.000000
1.000000
1.000000
1.000000
1.000000
1.000000
1.000000
1.000000
1.000000
1.000000
1.000000
1.000000
1.000000
1.000000
1.000000
1.000000
1.000000
1.000000
1.000000
1.000000
1.000000
1.000000
1.000000
1.000000
1.000000
1.000000
1.000000
1.000000
1.000000
1.000000
1.000000
1.000000
1.000000
1.000000
1.000000
1.000000
1.000000
1.000000
1.000000
1.000000
1.000000
1.000000
1.000000
1.000000
1.000000
1.000000
1.000000
1.000000
1.000000
1.000000
1.000000
1.000000
1.000000
1.000000
1.000000
1.000000
1.000000
1.000000
1.000000
1.000000
1.000000
1.000000
1.000000
1.000000
1.000000
1.000000
1.000000
1.000000
1.000000
1.000000
1.000000
1.000000
1.000000
1.000000
1.000000
1.000000
1.000000
1.000000
1.000000
1.000000
1.000000
1.000000
1.000000
1.000000
1.000000
1.000000
1.000000
1.000000
1.000000
1.000000
1.000000
1.000000
1.000000
1.000000
1.000000
1.000000
1.000000
1.000000
1.000000
1.000000
1.000000
1.000000
1.000000
1.000000
1.000000
1.000000
1.000000
1.000000
1.000000
1.000000
1.000000
1.000000
1.000000
1.000000
1.000000
1.000000
1.000000
1.000000
1.000000
1.000000
1.000000
1.000000
1.000000
1.000000
1.000000
1.000000
1.000000
1.000000
1.000000
1.000000
1.000000
1.000000
1.000000
1.000000
1.000000
1.000000
1.000000
1.000000
1.000000
1.000000
1.000000
1.000000
1.000000
1.000000
1.000000
1.000000
1.000000
1.000000
1.000000
1.000000
1.000000
1.000000
1.000000
1.000000
1.000000
1.000000
1.000000
1.000000
1.000000
1.000000
1.000000
1.000000
1.000000
1.000000
1.000000
1.000000
1.000000
1.000000
1.000000
1.000000
1.000000
1.000000
1.000000
1.000000
1.000000
1.000000
1.000000
1.000000
1.000000
1.000000
1.000000
1.000000
1.000000
1.000000
1.000000
1.000000
1.000000
1.000000
1.000000
1.000000
1.000000
1.000000
1.000000
1.000000
1.000000
1.000000
1.000000
1.000000
1.000000
1.000000
1.000000
1.000000
1.000000
1.000000
1.000000
1.000000
1.000000
1.000000
1.000000
1.000000
1.000000
1.000000
1.000000
1.000000
1.000000
1.000000
1.000000
1.000000
1.000000
1.000000
1.000000
1.000000
1.000000
1.000000
1.000000
1.000000
1.000000
1.000000
1.000000
1.000000
1.000000
1.000000
1.000000
1.000000
1.000000
1.000000
1.000000
1.000000
1.000000
1.000000
1.000000
1.000000
1.000000
1.000000
1.000000
1.000000
1.000000
1.000000
1.000000
1.000000
1.000000
1.000000
1.000000
1.000000
1.000000
1.000000
1.000000
1.000000
1.000000
1.000000
1.000000
1.000000
1.000000
1.000000
1.000000
1.000000
1.000000
1.000000
1.000000
1.000000
1.000000
1.000000
1.000000
1.000000
1.000000
1.000000
1.000000
1.000000
1.000000
1.000000
1.000000
1.000000
1.000000
1.000000
1.000000
1.000000
1.000000
1.000000
1.000000
1.000000
1.000000
1.000000
1.000000
1.000000
1.000000
1.000000
1.000000
1.000000
1.000000
1.000000
1.000000
1.000000
1.000000
1.000000
1.000000
1.000000
1.000000
1.000000
1.000000
1.000000
1.000000
1.000000
1.000000
1.000000
1.000000
1.000000
1.000000
1.000000
1.000000
1.000000
1.000000
1.000000
1.000000
1.000000
1.000000
1.000000
1.000000
1.000000
1.000000
1.000000
1.000000
1.000000
1.000000
1.000000
1.000000
1.000000
1.000000
1.000000
1.000000
1.000000
1.000000
1.000000
1.000000
1.000000
1.000000
1.000000
1.000000
1.000000
1.000000
1.000000
1.000000
1.000000
1.000000
1.000000
1.000000
1.000000
1.000000
1.000000
1.000000
1.000000
1.000000
1.000000
1.000000
1.000000
1.000000
1.000000
1.000000
1.000000
1.000000
1.000000
1.000000
1.000000
1.000000
1.000000
1.000000
1.000000
1.000000
1.000000
1.000000
1.000000
1.000000
1.000000
1.000000
1.000000
1.000000
1.000000
1.000000
1.000000
1.000000
1.000000
1.000000
1.000000
1.000000
1.000000
1.000000
1.000000
1.000000
1.000000
1.000000
1.000000
1.000000
1.000000
1.000000
1.000000
1.000000
1.000000
1.000000
1.000000
1.000000
1.000000
1.000000
1.000000
1.000000
1.000000
1.000000
1.000000
1.000000
1.000000
1.000000
1.000000
1.000000
1.000000
1.000000
1.000000
1.000000
1.000000
1.000000
1.000000
1.000000
1.000000
1.000000
1.000000
1.000000
1.000000
1.000000
1.000000
1.000000
1.000000
1.000000
1.000000
1.000000
1.000000
1.000000
1.000000
1.000000
1.000000
1.000000
1.000000
1.000000
1.000000
1.000000
1.000000
1.000000
1.000000
1.000000
1.000000
1.000000
1.000000
1.000000
1.000000
1.000000
1.000000
1.000000
1.000000
1.000000
1.000000
1.000000
1.000000
1.000000
1.000000
1.000000
1.000000
1.000000
1.000000
1.000000
1.000000
1.000000
1.000000
1.000000
1.000000
1.000000
1.000000
1.000000
1.000000
1.000000
1.000000
1.000000
1.000000
1.000000
1.000000
1.000000
1.000000
1.000000
1.000000
1.000000
1.000000
1.000000
1.000000
1.000000
1.000000
1.000000
1.000000
1.000000
1.000000
1.000000
1.000000
1.000000
1.000000
1.000000
1.000000
1.000000
1.000000
1.000000
1.000000
1.000000
1.000000
1.000000
1.000000
1.000000
1.000000
1.000000
1.000000
1.000000
1.000000
1.000000
1.000000
1.000000
1.000000
1.000000
1.000000
1.000000
1.000000
1.000000
1.000000
1.000000
1.000000
1.000000
1.000000
1.000000
1.000000
1.000000
1.000000
1.000000
1.000000
1.000000
1.000000
1.000000
1.000000
1.000000
1.000000
1.000000
1.000000
1.000000
1.000000
1.000000
1.000000
1.000000
1.000000
1.000000
1.000000
1.000000
1.000000
1.000000
1.000000
1.000000
1.000000
1.000000
1.000000
1.000000
1.000000
1.000000
1.000000
1.000000
1.000000
1.000000
1.000000
1.000000
1.000000
1.000000
1.000000
1.000000
1.000000
1.000000
1.000000
1.000000
1.000000
1.000000
1.000000
1.000000
1.000000
1.000000
1.000000
1.000000
1.000000
1.000000
1.000000
1.000000
1.000000
1.000000
1.000000
1.000000
1.000000
1.000000
1.000000
1.000000
1.000000
1.000000
1.000000
1.000000
1.000000
1.000000
1.000000
1.000000
1.000000
1.000000
1.000000
1.000000
1.000000
1.000000
1.000000
1.000000
1.000000
1.000000
1.000000
1.000000
1.000000
1.000000
1.000000
1.000000
1.000000
1.000000
1.000000
1.000000
1.000000
1.000000
1.000000
1.000000
1.000000
1.000000
1.000000
1.000000
1.000000
1.000000
1.000000
1.000000
1.000000
1.000000
1.000000
1.000000
1.000000
1.000000
1.000000
1.000000
1.000000
1.000000
1.000000
1.000000
1.000000
1.000000
1.000000
1.000000
1.000000
1.000000
1.000000
1.000000
1.000000
1.000000
1.000000
1.000000
1.000000
1.000000
1.000000
1.000000
1.000000
1.000000
1.000000
1.000000
1.000000
1.000000
1.000000
1.000000
1.000000
1.000000
1.000000
1.000000
1.000000
1.000000
1.000000
1.000000
1.000000
1.000000
1.000000
1.000000
1.000000
1.000000
1.000000
1.000000
1.000000
1.000000
1.000000
1.000000
1.000000
1.000000
1.000000
1.000000
1.000000
1.000000
1.000000
1.000000
1.000000
1.000000
1.000000
1.000000
1.000000
1.000000
1.000000
1.000000
1.000000
1.000000
1.000000
1.000000
1.000000
1.000000
1.000000
1.000000
1.000000
1.000000
1.000000
1.000000
1.000000
1.000000
1.000000
1.000000
1.000000
1.000000
1.000000
1.000000
1.000000
1.000000
1.000000
1.000000
1.000000
1.000000
1.000000
1.000000
1.000000
1.000000
1.000000
1.000000
1.000000
1.000000
1.000000
1.000000
1.000000
1.000000
1.000000
VECTORS v double
3.695472 -7.195957 0.000000
-2.529014 -4.478031 0.000000
-7.844900 -2.970933 0.000000
2.877546 14.843437 0.000000
-3.948584 -4.702207 0.000000
2.977404 4.868030 0.000000
5.494381 6.956927 0.000000
-3.214948 3.893920 0.000000
-6.003985 9.255565 0.000000
9.992504 0.071235 0.000000
-8.103378 -0.273632 0.000000
-8.178769 0.000143 0.000000
-8.179296 -0.000022 0.000000
-8.178883 -0.000161 0.000000
-8.132908 0.240090 0.000000
10.034270 -0.056206 0.000000
5.726205 4.278635 0.000000
2.253419 -8.818053 0.000000
-2.439358 9.004468 0.000000
1.436344 -2.041959 0.000000
6.757364 5.460251 0.000000
-7.239920 8.000017 0.000000
1.764940 -2.343392 0.000000
5.563249 7.276692 0.000000
-5.946812 10.499745 0.000000
2.633398 -13.726701 0.000000
-9.466020 3.327104 0.000000
5.455190 -9.765820 0.000000
-0.842117 -10.357235 0.000000
-0.082527 5.139160 0.000000
-5.901055 0.522043 0.000000
-3.481929 3.383351 0.000000
3.055504 13.717623 0.000000
-2.205350 2.250615 0.000000
10.009719 -0.111308 0.000000
8.111964 0.344687 0.000000
8.177886 -0.000213 0.000000
8.178330 0.000026 0.000000
8.177951 0.000204 0.000000
8.135461 -0.303139 0.000000
9.992569 0.107819 0.000000
10.438560 3.713433 0.000000
1.258262 -9.563396 0.000000
0.005839 -16.915347 0.000000
6.400822 5.519371 0.000000
2.502422 11.753557 0.000000
0.074792 -2.445627 0.000000
5.466929 9.755995 0.000000
-8.545317 -3.546464 0.000000
2.633398 13.726701 0.000000
0.162012 -9.240262 0.000000
6.144541 -1.320499 0.000000
5.253935 -5.013060 0.000000
-10.266783 9.202391 0.000000
10.036376 -0.319380 0.000000
-5.811313 -4.542919 0.000000
7.185090 -2.500829 0.000000
-6.593808 -5.439420 0.000000
-3.147753 -6.798724 0.000000
3.272819 7.911565 0.000000
12.143546 10.974906 0.000000
-8.043063 0.065432 0.000000
-8.080683 0.000057 0.000000
-8.019420 -0.071458 0.000000
2.678858 -6.920479 0.000000
9.152731 -3.524068 0.000000
-10.071425 0.358252 0.000000
4.171151 -4.050403 0.000000
12.890539 3.327069 0.000000
5.341028 -7.193316 0.000000
-1.604914 2.517034 0.000000
-6.975218 -11.181344 0.000000
-5.719025 -3.241194 0.000000
4.666966 1.430186 0.000000
0.166832 9.220235 0.000000
-0.505438 -3.677484 0.000000
6.835181 -10.619134 0.000000
-1.425826 9.349085 0.000000
6.225684 -2.005807 0.000000
2.268198 -10.267269 0.000000
12.911496 -5.972112 0.000000
-9.913062 0.707891 0.000000
7.411613 3.376291 0.000000
3.614074 4.156874 0.000000
-10.059002 -0.397865 0.000000
18.005309 7.020370 0.000000
8.048362 -0.091073 0.000000
8.078083 -0.000121 0.000000
8.022842 0.089633 0.000000
10.015782 0.267480 0.000000
-10.021897 0.138669 0.000000
3.453712 -3.928487 0.000000
-3.962880 -10.712277 0.000000
-10.986645 1.609897 0.000000
9.109359 2.168888 0.000000
15.329025 -5.430638 0.000000
4.136492 7.186359 0.000000
-5.958078 -9.267791 0.000000
6.835186 10.619134 0.000000
-0.505411 3.677593 0.000000
0.406137 -7.119286 0.000000
-3.786069 5.246385 0.000000
9.959449 -10.604787 0.000000
8.999496 9.047827 0.000000
-6.876458 8.412010 0.000000
-5.850535 14.037317 0.000000
11.377710 4.439370 0.000000
-8.046242 -2.130939 0.000000
2.851850 -5.278265 0.000000
-5.157441 -0.736254 0.000000
-7.690665 5.726895 0.000000
9.997339 0.013021 0.000000
-1.732672 15.145750 0.000000
1.478337 5.765513 0.000000
-8.741203 -10.336545 0.000000
1.177238 -7.945011 0.000000
-1.952262 -1.288185 0.000000
-8.081022 2.345861 0.000000
-3.897135 6.053164 0.000000
2.830877 -5.404075 0.000000
-5.871723 0.062625 0.000000
-5.555954 -1.913216 0.000000
9.789125 6.215818 0.000000
8.240746 -4.222040 0.000000
-5.210398 7.591137 0.000000
-1.113791 -6.328371 0.000000
-1.995988 -10.926485 0.000000
5.564662 10.108040 0.000000
1.739853 -9.170619 0.000000
-6.340358 -0.513319 0.000000
-3.143934 -8.407317 0.000000
-8.120664 -3.034987 0.000000
-3.204625 6.179360 0.000000
-9.957919 1.531794 0.000000
12.465616 5.997336 0.000000
-5.290602 -12.057937 0.000000
9.925435 -0.216172 0.000000
-4.291178 13.443978 0.000000
-2.697372 -12.059482 0.000000
0.608077 -15.679778 0.000000
7.839750 -1.815046 0.000000
-9.907671 -1.482219 0.000000
7.425470 -2.646615 0.000000
-4.563325 -1.447514 0.000000
-9.427128 -4.394835 0.000000
-1.324250 -4.559024 0.000000
-6.196442 -13.788392 0.000000
-0.692661 -0.557659 0.000000
-1.995549 10.926610 0.000000
-1.113806 6.328397 0.000000
-5.239156 -5.414513 0.000000
1.682574 3.529367 0.000000
4.105773 -6.756518 0.000000
4.355022 -2.364084 0.000000
-1.164235 14.001548 0.000000
-3.303042 10.326190 0.000000
-5.911501 3.279946 0.000000
15.424625 -0.063393 0.000000
-11.370266 -8.263681 0.000000
-9.964192 0.967226 0.000000
-9.966802 -1.057796 0.000000
-7.040731 7.074373 0.000000
-9.079926 -5.844071 0.000000
5.850827 -0.876508 0.000000
-8.258220 7.339131 0.000000
-9.922357 -1.029077 0.000000
-8.935977 10.134999 0.000000
14.245376 -3.134573 0.000000
-4.780257 9.038412 0.000000
-14.053376 -3.112563 0.000000
-4.368992 10.113893 0.000000
2.550687 -9.945557 0.000000
8.893916 3.229597 0.000000
4.613646 9.476547 0.000000
-1.818919 4.243817 0.000000
4.837053 -9.997753 0.000000
-7.434949 -2.365107 0.000000
10.449197 -0.624875 0.000000
-4.974982 4.992932 0.000000
-8.706909 1.511133 0.000000
-2.517978 -4.763162 0.000000
5.141828 11.042682 0.000000
10.666064 6.701971 0.000000
10.124698 -1.116444 0.000000
9.966924 -0.922742 0.000000
-9.210211 4.573444 0.000000
3.111096 -5.603998 0.000000
13.340206 3.319278 0.000000
-10.015949 -0.010794 0.000000
12.676062 -7.849304 0.000000
9.958843 0.807327 0.000000
10.111011 1.070612 0.000000
14.373558 -4.701886 0.000000
3.832871 -6.488048 0.000000
-3.304268 -5.954201 0.000000
8.101143 -12.712816 0.000000
11.441534 1.199242 0.000000
1.707900 3.585820 0.000000
4.825564 -5.860743 0.000000
4.837053 9.997753 0.000000
-2.977147 -4.377142 0.000000
-9.863414 -1.602077 0.000000
-5.066778 -11.703766 0.000000
5.133681 7.917990 0.000000
-7.219520 7.555623 0.000000
1.334207 -3.175914 0.000000
-11.812900 3.199384 0.000000
2.114887 -9.424534 0.000000
-4.537358 2.930825 0.000000
-10.001357 -0.012823 0.000000
3.925166 -11.806178 0.000000
-7.461300 -0.064847 0.000000
-7.589774 0.000207 0.000000
-7.590106 0.084400 0.000000
-9.332114 1.949845 0.000000
-10.003094 0.030465 0.000000
-10.152736 -11.015124 0.000000
-4.176403 9.210356 0.000000
-9.996655 -1.202658 0.000000
-8.632342 -5.319495 0.000000
-7.206968 -7.381680 0.000000
-6.302722 13.482993 0.000000
0.340008 12.016143 0.000000
-9.486158 1.940293 0.000000
0.521140 8.138452 0.000000
1.492865 -1.198926 0.000000
-3.933265 -8.257646 0.000000
1.192546 -1.256292 0.000000
-6.066175 -0.580078 0.000000
-12.792137 4.449250 0.000000
-1.858572 -7.347547 0.000000
3.404159 2.606591 0.000000
-16.783698 2.524614 0.000000
-2.323176 11.036582 0.000000
-1.941425 7.849639 0.000000
-3.195291 8.088133 0.000000
7.443231 0.051136 0.000000
7.586798 -0.000150 0.000000
7.595126 -0.000331 0.000000
-9.987811 0.017414 0.000000
3.271080 -10.930542 0.000000
-1.673348 -9.862522 0.000000
-11.387396 3.962737 0.000000
-12.518472 -1.682231 0.000000
-6.839655 6.789081 0.000000
1.865934 10.003232 0.000000
-0.123617 1.017030 0.000000
1.008292 2.212552 0.000000
-3.933264 8.257642 0.000000
1.350531 0.822298 0.000000
11.638295 -4.342145 0.000000
4.723066 -6.689808 0.000000
-2.232001 -10.645450 0.000000
-2.309959 -1.716588 0.000000
-4.969145 -1.550146 0.000000
-8.877425 0.198501 0.000000
-5.985222 -5.556902 0.000000
-3.978055 12.895918 0.000000
-10.025990 0.024729 0.000000
13.280741 15.186839 0.000000
-7.693280 -0.032828 0.000000
-7.564115 0.000108 0.000000
-7.564311 -0.000005 0.000000
-7.563573 -0.000140 0.000000
-7.565454 0.005677 0.000000
12.591810 -14.515421 0.000000
-10.000783 -0.048751 0.000000
-4.420412 -11.073370 0.000000
-6.646831 -0.598022 0.000000
1.651413 -3.704537 0.000000
1.573717 -6.933751 0.000000
-7.692321 6.497477 0.000000
-9.918270 -5.368795 0.000000
-3.416351 -6.418570 0.000000
11.562056 4.792576 0.000000
-7.982456 -7.190923 0.000000
-9.767449 -5.480001 0.000000
9.106808 4.985540 0.000000
-10.814065 -0.001993 0.000000
2.476234 3.570185 0.000000
13.754899 6.739089 0.000000
1.733021 2.788257 0.000000
-10.062949 0.168336 0.000000
-9.997191 -0.123669 0.000000
-10.003137 0.007700 0.000000
7.435623 0.406034 0.000000
7.563427 -0.000133 0.000000
7.563636 0.000008 0.000000
7.562664 0.000199 0.000000
7.579397 0.083778 0.000000
-10.004022 -0.010854 0.000000
-9.996985 0.127051 0.000000
-1.182012 -9.271702 0.000000
4.770916 -3.831076 0.000000
-6.208403 4.259541 0.000000
-1.070989 7.701030 0.000000
-11.250631 0.294968 0.000000
7.023053 -9.651783 0.000000
-9.743519 5.558115 0.000000
-7.982003 7.191564 0.000000
-9.997758 0.098338 0.000000
-6.152875 -8.691217 0.000000
3.662428 0.995934 0.000000
9.359911 -0.300654 0.000000
5.593394 1.477903 0.000000
-7.033459 -8.076542 0.000000