# vtk DataFile Version 4.0
hesp visualization file
ASCII
DATASET UNSTRUCTURED_GRID
POINTS 1250 double
34.259650 -0.775783 4.000000
30.992093 -1.121422 4.000000
33.686553 6.580355 4.000000
33.068077 8.241988 4.000000
29.938521 4.730313 4.000000
29.426269 14.526748 4.000000
32.400346 9.528854 4.000000
32.770614 10.723500 4.000000
32.118833 15.621835 4.000000
34.490058 13.728730 4.000000
32.889202 11.713526 4.000000
31.809933 15.311427 4.000000
32.043566 16.315070 4.000000
30.174770 16.919852 4.000000
31.474311 18.060169 4.000000
29.367018 16.356083 4.000000
30.943134 19.620840 4.000000
33.333897 16.266038 4.000000
28.099263 22.703114 4.000000
29.440571 17.349270 4.000000
34.339672 22.595825 4.000000
31.149260 30.716931 4.000000
34.505112 25.518752 4.000000
31.872552 30.643955 4.000000
31.058702 28.753670 4.000000
31.811230 -16.605598 4.000000
32.428029 0.960679 4.000000
34.469289 -6.839872 4.000000
31.878038 2.257745 4.000000
28.586651 8.578466 4.000000
30.304495 4.067909 4.000000
32.334307 7.666898 4.000000
31.586309 12.813494 4.000000
32.905091 13.092941 4.000000
32.168513 13.106758 4.000000
30.209165 12.419049 4.000000
28.493519 12.028085 4.000000
33.478122 14.693265 4.000000
31.326953 17.587536 4.000000
34.385390 15.456418 4.000000
31.057086 14.058938 4.000000
32.180653 16.664719 4.000000
31.454719 16.390045 4.000000
32.932448 20.932220 4.000000
31.333649 24.033810 4.000000
31.846108 24.301861 4.000000
32.399711 20.943428 4.000000
34.485992 36.013493 4.000000
31.506001 28.507112 4.000000
31.811230 45.789611 4.000000
31.842366 -6.331432 4.000000
35.227831 1.503309 4.000000
32.797071 1.552057 4.000000
28.921635 7.923412 4.000000
36.237054 1.213149 4.000000
31.326574 10.974197 4.000000
31.757291 8.542594 4.000000
30.695644 5.418666 4.000000
29.746514 14.310396 4.000000
32.525563 12.306218 4.000000
31.843642 11.492822 4.000000
27.469841 16.084020 4.000000
36.441552 13.795706 4.000000
34.949131 13.926754 4.000000
33.586859 13.190628 4.000000
33.396565 15.403057 4.000000
30.235122 20.278885 4.000000
30.339665 20.638248 4.000000
31.505745 18.967437 4.000000
35.077703 15.408716 4.000000
31.386092 25.920267 4.000000
32.356879 18.174333 4.000000
32.243111 21.909304 4.000000
33.130539 29.456886 4.000000
31.783296 35.481589 4.000000
31.803616 -5.020438 4.000000
35.298327 -10.630894 4.000000
31.933634 4.683014 4.000000
37.536922 2.634447 4.000000
30.561790 2.903181 4.000000
31.815308 2.704615 4.000000
30.083731 7.591563 4.000000
30.028949 12.078915 4.000000
32.570595 8.558777 4.000000
34.565916 4.077739 4.000000
35.896255 16.234760 4.000000
33.369653 15.190179 4.000000
35.476914 10.464499 4.000000
30.868906 16.081781 4.000000
35.473584 15.455463 4.000000
29.986195 17.609139 4.000000
35.317932 17.849028 4.000000
32.296222 12.525430 4.000000
29.351770 23.756478 4.000000
31.033623 18.216169 4.000000
36.533312 27.650322 4.000000
36.239771 29.823252 4.000000
30.258565 28.170784 4.000000
35.298333 39.814906 4.000000
32.388195 33.780209 4.000000
31.740127 1.870273 4.000000
32.081634 2.424779 4.000000
31.119007 -9.230828 4.000000
31.518937 5.587744 4.000000
30.806868 8.063111 4.000000
30.808582 11.896810 4.000000
33.498446 7.614993 4.000000
34.698645 10.549110 4.000000
33.229763 8.931576 4.000000
33.561104 11.734561 4.000000
30.958050 14.656136 4.000000
33.245786 9.188474 4.000000
36.617685 17.861625 4.000000
32.975123 15.691596 4.000000
27.763655 16.134967 4.000000
36.043949 13.787285 4.000000
30.563697 20.012470 4.000000
31.984254 18.141930 4.000000
33.163293 24.092407 4.000000
31.939977 21.464084 4.000000
31.950222 23.467178 4.000000
34.720430 23.471828 4.000000
34.914650 34.729440 4.000000
33.535180 27.277381 4.000000
29.850834 29.185920 4.000000
30.268467 -5.850850 4.000000
31.134793 -9.712291 4.000000
38.257538 6.038146 4.000000
28.422679 5.585663 4.000000
33.196827 6.046591 4.000000
31.051641 6.779283 4.000000
30.578711 9.059886 4.000000
32.612852 13.067647 4.000000
32.324410 11.550658 4.000000
31.852128 7.949250 4.000000
29.065434 11.731050 4.000000
34.564249 12.004709 4.000000
32.289047 14.209554 4.000000
34.859825 15.283577 4.000000
32.578575 10.320885 4.000000
34.212870 15.854991 4.000000
34.613317 17.398209 4.000000
33.523093 24.369401 4.000000
30.307109 19.239023 4.000000
28.855649 24.953427 4.000000
30.957595 18.938061 4.000000
29.720417 17.334609 4.000000
41.510827 21.682235 4.000000
31.135231 38.896806 4.000000
30.268490 35.034873 4.000000
31.117233 -1.722484 4.000000
36.426211 -5.194986 4.000000
32.207491 -2.389112 4.000000
32.393624 2.570684 4.000000
28.234378 10.070823 4.000000
31.348135 5.860819 4.000000
33.791888 7.737261 4.000000
37.157972 12.992101 4.000000
29.108300 6.129901 4.000000
31.076368 11.376303 4.000000
30.837496 9.511807 4.000000
36.522214 15.815543 4.000000
33.887434 14.277889 4.000000
29.957084 15.998370 4.000000
33.626185 24.056558 4.000000
31.964337 17.480298 4.000000
32.040626 24.529812 4.000000
34.804332 22.594732 4.000000
30.852019 21.325105 4.000000
30.514812 21.587700 4.000000
32.951848 28.656073 4.000000
33.184850 17.850429 4.000000
31.044005 28.268689 4.000000
32.081223 29.752443 4.000000
31.990847 31.459562 4.000000
41.131184 -11.313223 4.000000
32.816053 -3.254147 4.000000
37.052573 0.173041 4.000000
31.759602 5.966338 4.000000
30.404065 7.476351 4.000000
32.614389 4.058334 4.000000
35.256392 9.359932 4.000000
37.490693 10.065099 4.000000
30.768511 11.181822 4.000000
33.905173 12.905225 4.000000
32.371292 13.615690 4.000000
33.956666 12.554091 4.000000
33.570718 17.641133 4.000000
36.987754 19.587702 4.000000
35.468619 17.564654 4.000000
33.990390 16.770023 4.000000
35.859655 18.808153 4.000000
35.293660 22.056930 4.000000
34.688838 18.734162 4.000000
30.461062 21.021607 4.000000
32.829382 19.143555 4.000000
33.242594 19.632576 4.000000
35.465819 30.762709 4.000000
33.061113 18.326472 4.000000
41.131184 40.497236 4.000000
30.524299 0.220025 4.000000
32.725919 1.266844 4.000000
35.355242 -5.849257 4.000000
37.447233 5.395610 4.000000
33.377863 6.835393 4.000000
35.073626 5.563679 4.000000
29.737924 12.506694 4.000000
36.581863 11.006562 4.000000
37.007485 9.781462 4.000000
35.432895 7.011362 4.000000
35.669927 8.648161 4.000000
37.259492 15.409006 4.000000
39.433005 15.758805 4.000000
33.986180 15.968506 4.000000
31.493448 18.358012 4.000000
36.113899 18.157952 4.000000
33.910128 17.870138 4.000000
36.728140 15.310164 4.000000
30.437080 17.395259 4.000000
31.535615 20.600906 4.000000
34.782712 20.119248 4.000000
34.612582 24.787035 4.000000
37.696096 33.141085 4.000000
27.402728 29.107720 4.000000
33.307047 32.067223 4.000000
32.564480 0.428694 4.000000
31.919135 -7.342277 4.000000
32.049471 -0.787760 4.000000
34.836016 2.939276 4.000000
35.253181 10.047102 4.000000
33.287199 2.737562 4.000000
37.979776 7.891558 4.000000
38.373756 11.956091 4.000000
34.985887 13.623406 4.000000
37.870364 11.036715 4.000000
32.835623 11.046288 4.000000
37.879705 14.845692 4.000000
34.098547 14.028283 4.000000
38.340284 19.271614 4.000000
36.357162 16.570271 4.000000
36.570021 14.528504 4.000000
36.251984 16.802258 4.000000
31.899885 20.467433 4.000000
33.914764 23.101042 4.000000
36.655481 22.235209 4.000000
35.193384 24.558839 4.000000
32.490675 26.359814 4.000000
32.278614 30.533020 4.000000
31.919716 36.526394 4.000000
32.462356 28.221994 4.000000
31.707581 -3.506934 4.000000
34.774380 -1.886328 4.000000
35.404608 4.245863 4.000000
33.535077 2.214168 4.000000
35.400236 5.834445 4.000000
40.236406 8.335238 4.000000
31.162660 7.634085 4.000000
35.739895 12.579473 4.000000
34.920851 10.082876 4.000000
39.645312 15.606215 4.000000
34.519897 12.706048 4.000000
36.044216 8.034473 4.000000
36.373082 12.689347 4.000000
35.620952 15.190392 4.000000
36.771529 17.443665 4.000000
38.155334 15.139460 4.000000
34.390446 17.220327 4.000000
35.168185 14.329934 4.000000
31.055671 20.968069 4.000000
35.742411 19.825840 4.000000
37.223445 21.706102 4.000000
29.909207 30.020638 4.000000
37.101195 26.218951 4.000000
32.875415 25.677642 4.000000
31.661354 30.452967 4.000000
31.088630 -5.137731 4.000000
33.600373 -5.223923 4.000000
35.913637 12.207234 4.000000
34.070964 3.160697 4.000000
37.210413 10.803587 4.000000
34.977128 8.502445 4.000000
36.393211 9.344484 4.000000
33.577246 8.388465 4.000000
35.826481 11.538371 4.000000
36.872945 14.606297 4.000000
38.048435 13.160478 4.000000
37.725921 12.620540 4.000000
35.990709 19.681959 4.000000
34.820292 17.576162 4.000000
37.738428 16.458999 4.000000
33.492792 16.593408 4.000000
39.139631 15.524483 4.000000
38.880280 21.414932 4.000000
36.794554 20.998730 4.000000
35.370738 23.150899 4.000000
36.781162 27.986862 4.000000
31.436206 27.974772 4.000000
40.466583 19.355752 4.000000
33.557323 33.999673 4.000000
30.948799 34.267159 4.000000
31.678679 -1.186811 4.000000
30.260239 -4.228846 4.000000
39.922325 1.826373 4.000000
38.294561 6.466808 4.000000
37.356600 4.874162 4.000000
35.828456 7.227733 4.000000
34.949189 7.635871 4.000000
33.058604 7.817517 4.000000
34.940333 12.252477 4.000000
39.102018 12.160785 4.000000
38.732846 9.447368 4.000000
36.357624 12.357679 4.000000
39.669132 17.608986 4.000000
37.971640 15.343750 4.000000
37.805609 21.305860 4.000000
35.622997 19.181472 4.000000
34.409170 18.782527 4.000000
37.038178 20.039749 4.000000
37.237482 18.444737 4.000000
36.020720 24.222163 4.000000
39.226172 21.574855 4.000000
34.255990 19.578180 4.000000
36.016916 34.102923 4.000000
30.167774 32.707054 4.000000
32.728631 33.362265 4.000000
33.067531 -1.507988 4.000000
33.784355 -0.324211 4.000000
32.648478 -3.575927 4.000000
35.558214 1.652909 4.000000
34.999901 4.215878 4.000000
39.244018 5.363994 4.000000
38.616272 6.335286 4.000000
41.670773 8.332823 4.000000
35.418382 11.234911 4.000000
38.000763 11.502981 4.000000
35.178097 12.096652 4.000000
39.314203 14.819790 4.000000
36.355444 15.278557 4.000000
38.188331 15.573191 4.000000
41.342708 15.228089 4.000000
34.721176 20.796978 4.000000
37.375325 16.931835 4.000000
35.389867 18.482091 4.000000
[...]
POINT_DATA 1250
SCALARS m double
LOOKUP_TABLE default
1.000000
1.000000
1.000000
1.000000
1.000000
1.000000
1.000000
1.000000
1.000000
1.000000
1.000000
1.000000
1.000000
1.000000
1.000000
1.000000
1.000000
1.000000
1.000000
1.000000
1.000000
1.000000
1.000000
1.000000
1.000000
1.000000
1.000000
1.000000
1.000000
1.000000
1.000000
1.000000
1.000000
1.000000
1.000000
1.000000
1.000000
1.000000
1.000000
1.000000
1.000000
1.000000
1.000000
1.000000
1.000000
1.000000
1.000000
1.000000
1.000000
1.000000
1.000000
1.000000
1.000000
1.000000
1.000000
1.000000
1.000000
1.000000
1.000000
1.000000
1.000000
1.000000
1.000000
1.000000
1.000000
1.000000
1.000000
1.000000
1.000000
1.000000
1.000000
1.000000
1.000000
1.000000
1.000000
1.000000
1.000000
1.000000
1.000000
1.000000
1.000000
1.000000
1.000000
1.000000
1.000000
1.000000
1.000000
1.000000
1.000000
1.000000
1.000000
1.000000
1.000000
1.000000
1.000000
1.000000
1.000000
1.000000
1.000000
1.000000
1.000000
1.000000
1.000000
1.000000
1.000000
1.000000
1.000000
1.000000
1.000000
1.000000
1.000000
1.000000
1.000000
1.000000
1.000000
1.000000
1.000000
1.000000
1.000000
1.000000
1.000000
1.000000
1.000000
1.000000
1.000000
1.000000
1.000000
1.000000
1.000000
1.000000
1.000000
1.000000
1.000000
1.000000
1.000000
1.000000
1.000000
1.000000
1.000000
1.000000
1.000000
1.000000
1.000000
1.000000
1.000000
1.000000
1.000000
1.000000
1.000000
1.000000
1.000000
1.000000
1.000000
1.000000
1.000000
1.000000
1.000000
1.000000
1.000000
1.000000
1.000000
1.000000
1.000000
1.000000
1.000000
1.000000
1.000000
1.000000
1.000000
1.000000
1.000000
1.000000
1.000000
1.000000
1.000000
1.000000
1.000000
1.000000
1.000000
1.000000
1.000000
1.000000
1.000000
1.000000
1.000000
1.000000
1.000000
1.000000
1.000000
1.000000
1.000000
1.000000
1.000000
1.000000
1.000000
1.000000
1.000000
1.000000
1.000000
1.000000
1.000000
1.000000
1.000000
1.000000
1.000000
1.000000
1.000000
1.000000
1.000000
1.000000
1.000000
1.000000
1.000000
1.000000
1.000000
1.000000
1.000000
1.000000
1.000000
1.000000
1.000000
1.000000
1.000000
1.000000
1.000000
1.000000
1.000000
1.000000
1.000000
1.000000
1.000000
1.000000
1.000000
1.000000
1.000000
1.000000
1.000000
1.000000
1.000000
1.000000
1.000000
1.000000
1.000000
1.000000
1.000000
1.000000
1.000000
1.000000
1.000000
1.000000
1.000000
1.000000
1.000000
1.000000
1.000000
1.000000
1.000000
1.000000
1.000000
1.000000
1.000000
1.000000
1.000000
1.000000
1.000000
1.000000
1.000000
1.000000
1.000000
1.000000
1.000000
1.000000
1.000000
1.000000
1.000000
1.000000
1.000000
1.000000
1.000000
1.000000
1.000000
1.000000
1.000000
1.000000
1.000000
1.000000
1.000000
1.000000
1.000000
1.000000
1.000000
1.000000
1.000000
1.000000
1.000000
1.000000
1.000000
1.000000
1.000000
1.000000
1.000000
1.000000
1.000000
1.000000
1.000000
1.000000
1.000000
1.000000
1.000000
1.000000
1.000000
1.000000
1.000000
1.000000
1.000000
1.000000
1.000000
1.000000
1.000000
1.000000
1.000000
1.000000
1.000000
1.000000
1.000000
1.000000
1.000000
1.000000
1.000000
1.000000
1.000000
1.000000
1.000000
1.000000
1.000000
1.000000
1.000000
1.000000
1.000000
1.000000
1.000000
1.000000
1.000000
1.000000
1.000000
1.000000
1.000000
1.000000
1.000000
1.000000
1.000000
1.000000
1.000000
1.000000
1.000000
1.000000
1.000000
1.000000
1.000000
1.000000
1.000000
1.000000
1.000000
1.000000
1.000000
1.000000
1.000000
1.000000
1.000000
1.000000
1.000000
1.000000
1.000000
1.000000
1.000000
1.000000
1.000000
1.000000
1.000000
1.000000
1.000000
1.000000
1.000000
1.000000
1.000000
1.000000
1.000000
1.000000
1.000000
1.000000
1.000000
1.000000
1.000000
1.000000
1.000000
1.000000
1.000000
1.000000
1.000000
1.000000
1.000000
1.000000
1.000000
1.000000
1.000000
1.000000
1.000000
1.000000
1.000000
1.000000
1.000000
1.000000
1.000000
1.000000
1.000000
1.000000
1.000000
1.000000
1.000000
1.000000
1.000000
1.000000
1.000000
1.000000
1.000000
1.000000
1.000000
1.000000
1.000000
1.000000
1.000000
1.000000
1.000000
1.000000
1.000000
1.000000
1.000000
1.000000
1.000000
1.000000
1.000000
1.000000
1.000000
1.000000
1.000000
1.000000
1.000000
1.000000
1.000000
1.000000
1.000000
1.000000
1.000000
1.000000
1.000000
1.000000
1.000000
1.000000
1.000000
1.000000
1.000000
1.000000
1.000000
1.000000
1.000000
1.000000
1.000000
1.000000
1.000000
1.000000
1.000000
1.000000
1.000000
1.000000
1.000000
1.000000
1.000000
1.000000
1.000000
1.000000
1.000000
1.000000
1.000000
1.000000
1.000000
1.000000
1.000000
1.000000
1.000000
1.000000
1.000000
1.000000
1.000000
1.000000
1.000000
1.000000
1.000000
1.000000
1.000000
1.000000
1.000000
1.000000
1.000000
1.000000
1.000000
1.000000
1.000000
1.000000
1.000000
1.000000
1.000000
1.000000
1.000000
1.000000
1.000000
1.000000
1.000000
1.000000
1.000000
1.000000
1.000000
1.000000
1.000000
1.000000
1.000000
1.000000
1.000000
1.000000
1.000000
1.000000
1.000000
1.000000
1.000000
1.000000
1.000000
1.000000
1.000000
1.000000
1.000000
1.000000
1.000000
1.000000
1.000000
1.000000
1.000000
1.000000
1.000000
1.000000
1.000000
1.000000
1.000000
1.000000
1.000000
1.000000
1.000000
1.000000
1.000000
1.000000
1.000000
1.000000
1.000000
1.000000
1.000000
1.000000
1.000000
1.000000
1.000000
1.000000
1.000000
1.000000
1.000000
1.000000
1.000000
1.000000
1.000000
1.000000
1.000000
1.000000
1.000000
1.000000
1.000000
1.000000
1.000000
1.000000
1.000000
1.000000
1.000000
1.000000
1.000000
1.000000
1.000000
1.000000
1.000000
1.000000
1.000000
1.000000
1.000000
1.000000
1.000000
1.000000
1.000000
1.000000
1.000000
1.000000
1.000000
1.000000
1.000000
1.000000
1.000000
1.000000
1.000000
1.000000
1.000000
1.000000
1.000000
1.000000
1.000000
1.000000
1.000000
1.000000
1.000000
1.000000
1.000000
1.000000
1.000000
1.000000
1.000000
1.000000
1.000000
1.000000
1.000000
1.000000
1.000000
1.000000
1.000000
1.000000
1.000000
1.000000
1.000000
1.000000
1.000000
1.000000
1.000000
1.000000
1.000000
1.000000
1.000000
1.000000
1.000000
1.000000
1.000000
1.000000
1.000000
1.000000
1.000000
1.000000
1.000000
1.000000
1.000000
1.000000
1.000000
1.000000
1.000000
1.000000
1.000000
1.000000
1.000000
1.000000
1.000000
1.000000
1.000000
1.000000
1.000000
1.000000
1.000000
1.000000
1.000000
1.000000
1.000000
1.000000
1.000000
1.000000
1.000000
1.000000
1.000000
1.000000
1.000000
1.000000
1.000000
1.000000
1.000000
1.000000
1.000000
1.000000
1.000000
1.000000
1.000000
1.000000
1.000000
1.000000
1.000000
1.000000
1.000000
1.000000
1.000000
1.000000
1.000000
1.000000
1.000000
1.000000
1.000000
1.000000
1.000000
1.000000
1.000000
1.000000
1.000000
1.000000
1.000000
1.000000
1.000000
1.000000
1.000000
1.000000
1.000000
1.000000
1.000000
1.000000
1.000000
1.000000
1.000000
1.000000
1.000000
1.000000
1.000000
1.000000
1.000000
1.000000
1.000000
1.000000
1.000000
1.000000
1.000000
1.000000
1.000000
1.000000
1.000000
1.000000
1.000000
1.000000
1.000000
1.000000
1.000000
1.000000
1.000000
1.000000
1.000000
1.000000
1.000000
1.000000
1.000000
1.000000
1.000000
1.000000
1.000000
1.000000
1.000000
1.000000
1.000000
1.000000
1.000000
1.000000
1.000000
1.000000
1.000000
1.000000
1.000000
1.000000
1.000000
1.000000
1.000000
1.000000
1.000000
1.000000
1.000000
1.000000
1.000000
1.000000
1.000000
1.000000
1.000000
1.000000
1.000000
1.000000
1.000000
1.000000
1.000000
1.000000
1.000000
1.000000
1.000000
1.000000
1.000000
1.000000
1.000000
1.000000
1.000000
1.000000
1.000000
1.000000
1.000000
1.000000
1.000000
1.000000
1.000000
1.000000
1.000000
1.000000
1.000000
1.000000
1.000000
1.000000
1.000000
1.000000
1.000000
1.000000
1.000000
1.000000
1.000000
1.000000
1.000000
1.000000
1.000000
1.000000
1.000000
1.000000
1.000000
1.000000
1.000000
1.000000
1.000000
1.000000
1.000000
1.000000
1.000000
1.000000
1.000000
1.000000
1.000000
1.000000
1.000000
1.000000
1.000000
1.000000
1.000000
1.000000
1.000000
1.000000
1.000000
1.000000
1.000000
1.000000
1.000000
1.000000
1.000000
1.000000
1.000000
1.000000
1.000000
1.000000
1.000000
1.000000
1.000000
1.000000
1.000000
1.000000
1.000000
1.000000
1.000000
1.000000
1.000000
1.000000
1.000000
1.000000
1.000000
1.000000
1.000000
1.000000
1.000000
1.000000
1.000000
1.000000
1.000000
1.000000
1.000000
1.000000
1.000000
1.000000
1.000000
1.000000
1.000000
1.000000
1.000000
1.000000
1.000000
1.000000
1.000000
1.000000
1.000000
1.000000
1.000000
1.000000
1.000000
1.000000
1.000000
1.000000
1.000000
1.000000
1.000000
1.000000
1.000000
1.000000
1.000000
1.000000
1.000000
1.000000
1.000000
1.000000
1.000000
1.000000
1.000000
1.000000
1.000000
1.000000
1.000000
1.000000
1.000000
1.000000
1.000000
1.000000
1.000000
1.000000
1.000000
1.000000
1.000000
1.000000
1.000000
1.000000
1.000000
1.000000
1.000000
1.000000
1.000000
1.000000
1.000000
1.000000
1.000000
1.000000
1.000000
1.000000
1.000000
1.000000
1.000000
1.000000
1.000000
1.000000
1.000000
1.000000
1.000000
1.000000
1.000000
1.000000
1.000000
1.000000
1.000000
1.000000
1.000000
1.000000
1.000000
1.000000
1.000000
1.000000
1.000000
1.000000
1.000000
1.000000
1.000000
1.000000
1.000000
1.000000
1.000000
1.000000
1.000000
1.000000
1.000000
1.000000
1.000000
1.000000
1.000000
1.000000
1.000000
1.000000
1.000000
1.000000
1.000000
1.000000
1.000000
1.000000
1.000000
1.000000
1.000000
1.000000
1.000000
1.000000
1.000000
1.000000
1.000000
1.000000
1.000000
1.000000
1.000000
1.000000
1.000000
1.000000
1.000000
1.000000
1.000000
1.000000
1.000000
1.000000
1.000000
1.000000
1.000000
1.000000
1.000000
1.000000
1.000000
1.000000
1.000000
1.000000
1.000000
1.000000
1.000000
1.000000
1.000000
1.000000
1.000000
1.000000
1.000000
1.000000
1.000000
1.000000
1.000000
1.000000
1.000000
1.000000
1.000000
1.000000
1.000000
1.000000
1.000000
1.000000
1.000000
1.000000
1.000000
1.000000
1.000000
1.000000
1.000000
1.000000
1.000000
1.000000
1.000000
1.000000
1.000000
1.000000
1.000000
1.000000
1.000000
1.000000
1.000000
1.000000
1.000000
1.000000
1.000000
1.000000
1.000000
1.000000
1.000000
1.000000
1.000000
1.000000
1.000000
1.000000
1.000000
1.000000
1.000000
1.000000
1.000000
1.000000
1.000000
1.000000
1.000000
1.000000
1.000000
1.000000
1.000000
1.000000
1.000000
1.000000
1.000000
1.000000
1.000000
1.000000
1.000000
1.000000
1.000000
1.000000
1.000000
1.000000
1.000000
1.000000
1.000000
1.000000
1.000000
1.000000
1.000000
1.000000
1.000000
1.000000
1.000000
1.000000
1.000000
1.000000
1.000000
1.000000
1.000000
1.000000
1.000000
1.000000
1.000000
1.000000
1.000000
1.000000
1.000000
1.000000
1.000000
1.000000
1.000000
1.000000
1.000000
1.000000
1.000000
1.000000
1.000000
1.000000
1.000000
1.000000
1.000000
1.000000
1.000000
1.000000
1.000000
1.000000
1.000000
1.000000
1.000000
1.000000
1.000000
1.000000
1.000000
1.000000
1.000000
1.000000
1.000000
1.000000
1.000000
1.000000
1.000000
1.000000
1.000000
1.000000
1.000000
1.000000
1.000000
1.000000
1.000000
1.000000
1.000000
1.000000
1.000000
1.000000
1.000000
1.000000
1.000000
1.000000
1.000000
1.000000
1.000000
1.000000
1.000000
1.000000
1.000000
1.000000
1.000000
1.000000
1.000000
1.000000
1.000000
1.000000
1.000000
1.000000
1.000000
1.000000
1.000000
1.000000
1.000000
1.000000
1.000000
1.000000
1.000000
1.000000
1.000000
1.000000
1.000000
1.000000
1.000000
1.000000
1.000000
1.000000
1.000000
1.000000
1.000000
1.000000
1.000000
1.000000
1.000000
1.000000
1.000000
1.000000
1.000000
1.000000
1.000000
1.000000
1.000000
1.000000
1.000000
1.000000
1.000000
1.000000
VECTORS v double
-8.205118 -13.841515 0.000000
2.971337 -3.588326 0.000000
-2.880680 4.979280 0.000000
3.033811 -1.276989 0.000000
-11.668065 -0.655182 0.000000
-6.257315 3.791812 0.000000
-8.116540 -15.000922 0.000000
4.530287 -5.679289 0.000000
12.315937 -1.626603 0.000000
-2.015866 -1.539108 0.000000
5.689185 -6.017505 0.000000
1.481125 0.977299 0.000000
4.708587 15.045499 0.000000
-4.791186 13.389379 0.000000
5.912742 3.557908 0.000000
-2.162373 2.553236 0.000000
12.882940 1.309503 0.000000
1.738868 -1.960411 0.000000
-5.855695 3.766250 0.000000
-6.263026 -5.598563 0.000000
8.768158 15.685740 0.000000
-7.990154 5.942943 0.000000
4.874678 -2.430646 0.000000
2.541793 6.894255 0.000000
-1.472809 7.935418 0.000000
2.630965 -13.726701 0.000000
-7.950797 3.298094 0.000000
5.360011 -9.594832 0.000000
2.538831 -0.332943 0.000000
-21.556723 0.207892 0.000000
2.128637 -6.731284 0.000000
8.134540 -0.810931 0.000000
3.878073 -5.998702 0.000000
5.009573 -6.323627 0.000000
11.236341 -4.741923 0.000000
0.890728 -7.947077 0.000000
-15.138163 -3.299058 0.000000
12.440285 -4.650593 0.000000
-2.552989 -7.848443 0.000000
1.586754 2.747193 0.000000
-1.050154 2.544576 0.000000
-5.825746 -3.608859 0.000000
-8.438781 3.267588 0.000000
-10.230290 -5.415425 0.000000
1.275447 0.118453 0.000000
-1.737074 8.977840 0.000000
5.463678 -9.774533 0.000000
5.385393 9.585034 0.000000
-0.178514 7.845943 0.000000
2.630965 13.726701 0.000000
-0.081706 -9.565828 0.000000
-9.829732 4.474802 0.000000
-5.207424 -3.552463 0.000000
-4.066402 2.360295 0.000000
-4.688322 -20.364647 0.000000
2.388160 15.468156 0.000000
-3.010334 -0.899051 0.000000
0.058639 7.472130 0.000000
1.084125 7.019879 0.000000
-6.448930 -1.336175 0.000000
-16.784298 -1.910795 0.000000
-7.496148 3.738638 0.000000
4.378722 6.324197 0.000000
13.855364 0.501895 0.000000
5.237599 4.149221 0.000000
1.860420 -6.355870 0.000000
-0.041970 5.023222 0.000000
-7.189326 1.116512 0.000000
-9.969927 5.199681 0.000000
-4.354720 -14.107535 0.000000
-5.785540 -3.263698 0.000000
-19.596096 10.771266 0.000000
2.442864 -3.862095 0.000000
-3.737881 9.852062 0.000000
-0.277501 9.464882 0.000000
3.156411 -10.533707 0.000000
6.835050 -10.617898 0.000000
-0.251284 -0.728377 0.000000
2.747494 -3.244276 0.000000
-4.330065 -7.966340 0.000000
3.708607 -7.415797 0.000000
-11.387207 -8.173837 0.000000
-1.536703 2.765022 0.000000
-9.419240 0.831665 0.000000
-0.060383 -17.147598 0.000000
11.393857 -0.639190 0.000000
-2.139121 -3.023411 0.000000
10.010323 -3.373611 0.000000
-9.834478 2.331067 0.000000
0.127088 10.791291 0.000000
-10.143263 0.166891 0.000000
6.110562 5.383620 0.000000
4.216243 -10.650527 0.000000
-5.328620 -2.416911 0.000000
4.373263 1.438978 0.000000
-0.882941 2.849864 0.000000
4.093880 7.441364 0.000000
7.476665 -4.322324 0.000000
6.835055 10.617898 0.000000
8.356208 6.283155 0.000000
-4.175104 -3.130505 0.000000
10.415885 -4.944078 0.000000
-3.411642 -18.544481 0.000000
0.138700 -15.234761 0.000000
2.973347 -5.997867 0.000000
-0.457193 5.202905 0.000000
2.162053 -1.165914 0.000000
12.601300 5.510861 0.000000
10.780315 -7.400165 0.000000
7.905141 -13.684203 0.000000
7.279297 4.014805 0.000000
-11.024509 -7.266201 0.000000
1.142884 8.789894 0.000000
3.878503 11.314964 0.000000
-20.321270 11.557382 0.000000
9.916068 -9.476737 0.000000
-3.476398 -2.174612 0.000000
-4.377270 -2.220268 0.000000
-1.880960 -4.555542 0.000000
3.513487 0.421132 0.000000
6.009350 1.439833 0.000000
-9.090419 -2.881001 0.000000
-1.170359 17.910504 0.000000
-7.319354 17.137715 0.000000
6.195333 6.429400 0.000000
1.161540 -6.326640 0.000000
-1.995864 -10.898775 0.000000
1.906005 -0.140641 0.000000
0.576100 -14.007456 0.000000
-7.155698 1.624500 0.000000
-1.360392 6.819716 0.000000
-10.007026 -5.041324 0.000000
-11.396041 4.738144 0.000000
-10.071711 1.860238 0.000000
7.658779 -0.385708 0.000000
4.803516 -3.060707 0.000000
-2.283819 2.960353 0.000000
0.146184 -7.695801 0.000000
7.035395 -7.086421 0.000000
-7.240238 2.941784 0.000000
-1.739116 -10.436131 0.000000
1.040465 -13.774188 0.000000
-3.268320 10.077125 0.000000
-4.045801 -4.918239 0.000000
-3.678306 7.796756 0.000000
-12.840022 5.115883 0.000000
-8.815712 -2.610531 0.000000
10.601448 -9.008740 0.000000
-1.995402 10.927773 0.000000
1.161672 6.326536 0.000000
-2.599851 -7.152296 0.000000
-0.274435 -18.169936 0.000000
3.189711 -10.660400 0.000000
-4.861638 -2.250629 0.000000
-12.378995 -8.144076 0.000000
-2.748121 5.166707 0.000000
-7.009139 0.345470 0.000000
3.088290 10.804707 0.000000
-6.816225 -10.460522 0.000000
-1.370854 -18.149167 0.000000
-2.427642 6.291069 0.000000
6.170469 5.486788 0.000000
-1.872975 4.494547 0.000000
-13.470525 9.148274 0.000000
6.698680 6.376385 0.000000
13.085389 2.429481 0.000000
-0.063463 2.294089 0.000000
-3.626739 -6.230732 0.000000
-14.407845 -8.654668 0.000000
3.578524 8.255456 0.000000
2.823447 15.333580 0.000000
0.471489 0.590236 0.000000
-1.309658 1.887992 0.000000
4.092309 -4.958200 0.000000
2.655064 7.011830 0.000000
4.837053 -9.997753 0.000000
-5.379497 -12.536498 0.000000
-5.676469 -6.819272 0.000000
-2.943645 -6.847815 0.000000
-8.181611 4.110742 0.000000
7.073281 -8.014283 0.000000
4.936109 -2.420302 0.000000
-3.865511 4.494461 0.000000
-2.548751 3.951819 0.000000
8.129394 -2.273746 0.000000
-0.634071 -7.937141 0.000000
-3.605320 2.333172 0.000000
7.463382 -3.215928 0.000000
7.678496 -2.020605 0.000000
-10.778039 -3.975751 0.000000
12.539254 -3.761564 0.000000
2.175549 -1.967578 0.000000
-3.257889 14.026367 0.000000
0.061819 11.551411 0.000000
-4.156733 -0.665435 0.000000
-13.064997 1.713611 0.000000
-7.823297 0.208278 0.000000
1.635653 0.999805 0.000000
-9.481790 -3.350525 0.000000
4.837053 9.997753 0.000000
-2.901464 -4.334274 0.000000
11.934845 -3.241263 0.000000
6.578327 -14.986490 0.000000
0.566661 -9.392770 0.000000
8.637606 2.875320 0.000000
2.657882 -2.054168 0.000000
-8.136608 8.368229 0.000000
-2.777404 11.835354 0.000000
7.049594 -9.783730 0.000000
-7.365384 -10.793532 0.000000
3.921765 -13.649401 0.000000
9.264159 11.191452 0.000000
2.466142 -5.143811 0.000000
8.001582 3.096292 0.000000
5.215452 1.149871 0.000000
0.979901 -10.517163 0.000000
1.349852 -7.235196 0.000000
8.040630 -0.364238 0.000000
1.131554 -11.074032 0.000000
-1.500010 4.795002 0.000000
4.075636 -2.658589 0.000000
1.133139 -9.171986 0.000000
0.924390 7.847874 0.000000
-14.046198 0.285296 0.000000
0.730770 7.921240 0.000000
-5.625392 -0.270507 0.000000
-3.936224 -8.252305 0.000000
-3.802658 -5.200881 0.000000
-0.671545 -3.561546 0.000000
-9.587613 -6.225374 0.000000
3.880853 -8.638332 0.000000
2.520999 -7.736025 0.000000
0.781826 6.430841 0.000000
-11.724253 11.849142 0.000000
-5.274651 7.114691 0.000000
-4.800463 -9.830352 0.000000
-1.413753 8.332333 0.000000
-7.549781 -4.418579 0.000000
-13.602377 4.868088 0.000000
-9.829570 -2.250428 0.000000
3.149714 4.487362 0.000000
-5.254664 2.928158 0.000000
4.532372 7.537798 0.000000
3.879212 5.587975 0.000000
-0.528549 -5.494571 0.000000
-1.903638 4.227376 0.000000
-10.853606 2.670671 0.000000
-5.983792 7.476624 0.000000
-3.933010 8.252658 0.000000
-0.998040 -2.218655 0.000000
1.880404 0.365231 0.000000
5.491115 -5.649236 0.000000
-9.210472 5.031857 0.000000
-2.342716 -1.770031 0.000000
-6.689276 2.429897 0.000000
10.502394 -5.725168 0.000000
-18.966284 -13.930077 0.000000
-4.626003 -3.866616 0.000000
-2.422907 -7.721963 0.000000
-5.491381 -14.464652 0.000000
-3.370944 2.926421 0.000000
7.790847 -17.395413 0.000000
2.305220 1.589795 0.000000
12.062540 -5.377390 0.000000
0.718158 -2.201646 0.000000
-5.418139 0.395414 0.000000
-1.015585 -1.551727 0.000000
-4.898290 1.882167 0.000000
-7.785027 1.758657 0.000000
8.666158 4.505177 0.000000
-8.440838 -1.892110 0.000000
-7.797135 6.393477 0.000000
5.438052 7.728222 0.000000
3.504621 -1.393614 0.000000
-6.228004 6.798485 0.000000
-3.786751 -16.054553 0.000000
-5.286844 -10.632801 0.000000
-8.169743 -0.401664 0.000000
-1.209485 6.597743 0.000000
10.344586 8.680631 0.000000
-10.125440 3.327875 0.000000
0.648503 -4.006937 0.000000
-8.502179 2.090124 0.000000
-6.149153 3.708286 0.000000
-2.453138 -11.193071 0.000000
-1.327945 -5.237285 0.000000
1.185611 -0.751708 0.000000
-16.162965 8.286313 0.000000
-5.611236 2.005187 0.000000
2.076248 13.148101 0.000000
4.788882 11.178654 0.000000
-16.595446 11.797138 0.000000
4.374205 5.231977 0.000000
-13.442563 -0.567317 0.000000
2.472213 1.602720 0.000000
3.594084 6.553263 0.000000
-8.091057 2.631788 0.000000
5.887458 -6.293720 0.000000
2.160978 11.815419 0.000000
-2.506829 11.299848 0.000000
-7.078497 -8.009787 0.000000
8.603808 -7.982013 0.000000
-1.573448 -8.153305 0.000000
0.394806 5.345801 0.000000
-4.809626 -4.192591 0.000000