# vtk DataFile Version 4.0
hesp visualization file
ASCII
DATASET UNSTRUCTURED_GRID
POINTS 1250 double
33.684174 -1.740997 4.000000
31.204985 -1.375843 4.000000
33.644010 6.608988 4.000000
33.240474 8.050334 4.000000
29.121758 4.684329 4.000000
29.430943 14.757862 4.000000
31.687533 8.738457 4.000000
33.103523 10.189657 4.000000
32.978732 15.506539 4.000000
34.315223 13.594121 4.000000
33.287129 11.292220 4.000000
31.915611 15.381903 4.000000
32.217748 16.079841 4.000000
30.372804 16.717915 4.000000
31.423637 18.164644 4.000000
29.092364 16.360147 4.000000
31.845819 19.722825 4.000000
33.816179 16.177310 4.000000
27.726681 22.967108 4.000000
28.875813 17.259940 4.000000
34.814773 23.709892 4.000000
30.591399 31.132163 4.000000
34.846420 25.348344 4.000000
31.718414 31.308910 4.000000
30.958412 29.305731 4.000000
31.995398 -17.566467 4.000000
31.874296 1.192464 4.000000
34.844496 -7.511504 4.000000
31.923224 1.943706 4.000000
27.031378 8.809072 4.000000
30.451218 3.595802 4.000000
32.905379 7.612243 4.000000
31.749780 12.343767 4.000000
33.259501 12.651920 4.000000
31.938618 12.678721 4.000000
30.424724 11.959122 4.000000
27.579300 11.826230 4.000000
34.119040 14.958921 4.000000
31.167191 17.032365 4.000000
34.926145 15.278265 4.000000
30.983614 14.238033 4.000000
32.110023 17.610260 4.000000
30.953241 16.594912 4.000000
32.813717 20.782729 4.000000
31.424090 24.042869 4.000000
31.576972 24.806227 4.000000
32.180549 20.031639 4.000000
34.862987 36.684397 4.000000
31.489193 29.056141 4.000000
31.995398 46.750480 4.000000
31.836641 -7.001076 4.000000
34.546771 1.817458 4.000000
32.433612 1.388027 4.000000
28.750291 8.166226 4.000000
35.522035 0.100018 4.000000
30.775568 11.033271 4.000000
31.548939 8.479755 4.000000
30.593220 5.895511 4.000000
29.815190 14.805842 4.000000
32.700483 11.588876 4.000000
31.416208 12.378500 4.000000
26.462821 16.123442 4.000000
36.617440 14.223831 4.000000
35.972097 14.139375 4.000000
33.956104 13.480524 4.000000
33.659643 15.428599 4.000000
30.253579 20.514022 4.000000
29.748393 20.644164 4.000000
30.806557 19.331795 4.000000
35.651102 14.919948 4.000000
30.981044 25.692179 4.000000
31.736458 19.163302 4.000000
32.420331 21.641058 4.000000
32.868823 30.147401 4.000000
31.763870 36.144165 4.000000
32.024436 -5.757830 4.000000
35.776781 -11.374147 4.000000
31.902613 4.609594 4.000000
37.727052 2.408737 4.000000
30.258697 2.345540 4.000000
32.109223 2.384109 4.000000
29.614307 7.656813 4.000000
29.769421 12.177014 4.000000
32.054565 8.355992 4.000000
34.564345 2.878786 4.000000
36.647411 15.822446 4.000000
33.078788 13.959390 4.000000
36.176634 10.227528 4.000000
30.252468 16.222997 4.000000
35.477313 16.207397 4.000000
29.548784 17.663995 4.000000
35.743938 18.224165 4.000000
32.032243 12.219100 4.000000
28.977828 23.588521 4.000000
31.066773 18.095347 4.000000
36.474613 27.854921 4.000000
36.525165 30.344949 4.000000
30.776049 27.860060 4.000000
35.776786 40.558159 4.000000
32.979491 34.216242 4.000000
31.451472 1.657544 4.000000
32.455682 1.705281 4.000000
30.813712 -10.271437 4.000000
31.535014 4.521571 4.000000
31.051553 7.639868 4.000000
30.773966 12.260427 4.000000
33.461374 7.458567 4.000000
35.581299 10.934118 4.000000
34.037484 8.277818 4.000000
34.114126 10.776767 4.000000
31.467295 14.936412 4.000000
32.456286 8.881154 4.000000
36.696547 18.475620 4.000000
33.048599 16.144783 4.000000
26.829291 17.166781 4.000000
36.746754 13.128046 4.000000
30.311510 19.849778 4.000000
32.024508 17.835564 4.000000
33.034664 23.775012 4.000000
32.179927 21.490758 4.000000
32.369063 23.567398 4.000000
34.422212 23.321903 4.000000
34.833768 35.984014 4.000000
33.026172 28.478399 4.000000
30.278926 29.635003 4.000000
30.348295 -6.293573 4.000000
31.061562 -10.732709 4.000000
38.235800 5.945827 4.000000
28.464905 4.609215 4.000000
32.691027 6.163456 4.000000
30.953833 7.258731 4.000000
29.878625 8.708226 4.000000
32.979195 13.667973 4.000000
31.617022 11.681547 4.000000
32.389804 7.922319 4.000000
29.449012 11.514211 4.000000
34.399595 12.213292 4.000000
32.299651 13.669013 4.000000
34.480476 14.291077 4.000000
32.079838 10.533235 4.000000
33.917241 15.320401 4.000000
35.047006 16.642567 4.000000
33.296392 25.067757 4.000000
30.003430 18.882013 4.000000
28.588855 25.502950 4.000000
30.090542 19.235206 4.000000
29.274667 17.472427 4.000000
42.252996 21.051763 4.000000
30.995552 39.661750 4.000000
30.348099 35.477614 4.000000
30.935642 -2.221916 4.000000
36.409868 -6.466841 4.000000
32.430744 -3.135425 4.000000
32.503464 2.871069 4.000000
27.900832 9.342153 4.000000
31.871286 5.994389 4.000000
33.627296 7.981627 4.000000
37.379330 13.746688 4.000000
28.692368 5.458408 4.000000
30.955884 10.113395 4.000000
30.727132 9.937052 4.000000
36.949965 16.198786 4.000000
33.985432 13.992418 4.000000
29.360959 15.785571 4.000000
34.090629 24.507949 4.000000
32.879594 17.651118 4.000000
32.182720 24.813448 4.000000
34.547727 22.161312 4.000000
30.239498 21.124182 4.000000
30.765851 22.160785 4.000000
33.148856 29.730444 4.000000
33.218324 17.893254 4.000000
30.931337 28.471601 4.000000
31.848580 30.128220 4.000000
32.176637 31.950139 4.000000
41.469778 -12.013066 4.000000
32.432086 -4.142316 4.000000
36.654510 -0.304071 4.000000
31.541426 5.489464 4.000000
30.803116 7.555201 4.000000
33.109502 3.497336 4.000000
35.601565 9.191203 4.000000
37.203236 10.392217 4.000000
30.588517 11.455723 4.000000
34.043801 12.831668 4.000000
32.216165 13.121120 4.000000
33.702991 12.698076 4.000000
33.894671 17.565902 4.000000
37.315008 19.587131 4.000000
34.712856 17.289087 4.000000
34.730073 16.388788 4.000000
36.049205 18.596680 4.000000
35.060949 23.020336 4.000000
34.787486 19.542047 4.000000
29.901744 21.030849 4.000000
32.046781 19.371153 4.000000
32.694553 19.646814 4.000000
35.582280 30.829590 4.000000
32.398972 18.088361 4.000000
41.469778 41.197079 4.000000
30.321084 -0.083378 4.000000
33.557411 0.954403 4.000000
35.815754 -6.898293 4.000000
37.538411 4.946710 4.000000
33.815051 7.368457 4.000000
35.265154 5.432730 4.000000
29.169879 13.092313 4.000000
35.997131 11.575550 4.000000
37.324699 9.050427 4.000000
34.915578 6.258131 4.000000
35.894958 7.705552 4.000000
37.881501 16.161755 4.000000
39.457858 15.532743 4.000000
34.291186 16.359593 4.000000
31.353320 18.649930 4.000000
36.183111 17.420769 4.000000
34.284428 17.553051 4.000000
37.169938 15.393920 4.000000
30.848104 16.883336 4.000000
31.436814 20.934972 4.000000
35.068000 19.933086 4.000000
34.702044 24.153119 4.000000
37.760802 33.690437 4.000000
26.419529 29.127711 4.000000
33.359265 32.622137 4.000000
32.171112 0.410173 4.000000
31.643601 -7.919889 4.000000
31.784761 -1.148919 4.000000
34.788530 2.690832 4.000000
34.989172 9.583191 4.000000
33.561879 2.331648 4.000000
38.159677 7.351022 4.000000
38.427691 12.404806 4.000000
34.141870 14.313137 4.000000
37.617493 11.619507 4.000000
32.475620 10.488368 4.000000
37.358780 15.051159 4.000000
33.572322 13.726963 4.000000
37.641117 19.250006 4.000000
35.804220 16.549294 4.000000
36.692250 14.852445 4.000000
36.460766 17.192543 4.000000
32.214763 20.995920 4.000000
33.771693 23.446356 4.000000
36.619655 21.851363 4.000000
35.057499 24.853997 4.000000
31.730950 26.546754 4.000000
32.207128 30.889332 4.000000
31.644404 37.104042 4.000000
32.391476 28.066594 4.000000
31.839461 -3.481413 4.000000
35.158752 -2.281767 4.000000
34.746090 4.591608 4.000000
33.367987 1.891490 4.000000
34.926531 5.991978 4.000000
40.972117 7.935122 4.000000
29.846623 6.689883 4.000000
35.383784 12.455777 4.000000
34.344998 9.571777 4.000000
39.439655 14.512897 4.000000
34.713237 12.846625 4.000000
36.643923 6.824096 4.000000
36.534833 12.793295 4.000000
36.363506 14.835587 4.000000
36.821453 17.287704 4.000000
38.050278 14.472469 4.000000
34.051465 16.983561 4.000000
34.823185 14.454714 4.000000
30.601166 21.069908 4.000000
35.238850 21.052892 4.000000
36.631564 21.572687 4.000000
29.363023 30.470810 4.000000
36.901661 26.896257 4.000000
33.120739 25.580099 4.000000
31.208616 30.914196 4.000000
30.823334 -6.261654 4.000000
33.230292 -5.968219 4.000000
35.395041 12.121621 4.000000
33.987265 3.622645 4.000000
37.209161 11.659642 4.000000
34.260616 8.742844 4.000000
36.438722 9.064073 4.000000
32.986843 8.566423 4.000000
35.305473 11.810219 4.000000
37.025935 13.806588 4.000000
37.944259 12.801053 4.000000
37.806708 12.568415 4.000000
35.892088 20.049436 4.000000
34.471316 17.755779 4.000000
37.881987 17.380056 4.000000
33.740214 17.029075 4.000000
38.010731 16.381500 4.000000
39.141577 21.818234 4.000000
35.853600 20.959060 4.000000
35.539678 23.261727 4.000000
36.858298 28.230827 4.000000
30.898572 28.100052 4.000000
40.877982 18.909669 4.000000
33.708494 34.826655 4.000000
30.773207 35.058270 4.000000
31.178851 -1.744555 4.000000
30.861985 -4.787597 4.000000
39.817027 1.268853 4.000000
38.304952 6.833867 4.000000
36.734808 4.622438 4.000000
36.221912 7.764873 4.000000
35.138352 6.657840 4.000000
32.708588 7.169874 4.000000
34.699171 12.231822 4.000000
39.389803 12.590839 4.000000
38.542493 9.115445 4.000000
36.793532 12.012780 4.000000
39.928504 17.996205 4.000000
37.567896 15.512323 4.000000
37.754223 21.822242 4.000000
35.850271 18.874643 4.000000
34.300211 18.455600 4.000000
36.070860 19.829694 4.000000
37.022836 18.746215 4.000000
35.679950 23.867691 4.000000
39.457207 21.492119 4.000000
33.942888 19.848322 4.000000
35.568557 35.285679 4.000000
29.815655 33.057604 4.000000
33.409077 34.219876 4.000000
33.007814 -1.935916 4.000000
33.914657 -1.278295 4.000000
32.146502 -4.326318 4.000000
35.483419 1.086778 4.000000
34.540073 4.088302 4.000000
39.115417 5.086401 4.000000
38.644725 6.093102 4.000000
42.424104 8.227015 4.000000
34.880891 11.404130 4.000000
38.564237 11.718365 4.000000
34.372244 11.465099 4.000000
39.102151 15.625146 4.000000
35.894177 15.533818 4.000000
38.304794 15.711343 4.000000
41.407863 14.834327 4.000000
33.772737 21.305525 4.000000
36.763148 16.833464 4.000000
34.678100 18.735898 4.000000
[...]
POINT_DATA 1250
SCALARS m double
LOOKUP_TABLE default
1.000000
1.000000
1.000000
1.000000
1.000000
1.000000
1.000000
1.000000
1.000000
1.000000
1.000000
1.000000
1.000000
1.000000
1.000000
1.000000
1.000000
1.000000
1.000000
1.000000
1.000000
1.000000
1.000000
1.000000
1.000000
1.000000
1.000000
1.000000
1.000000
1.000000
1.000000
1.000000
1.000000
1.000000
1.000000
1.000000
1.000000
1.000000
1.000000
1.000000
1.000000
1.000000
1.000000
1.000000
1.000000
1.000000
1.000000
1.000000
1.000000
1.000000
1.000000
1.000000
1.000000
1.000000
1.000000
1.000000
1.000000
1.000000
1.000000
1.000000
1.000000
1.000000
1.000000
1.000000
1.000000
1.000000
1.000000
1.000000
1.000000
1.000000
1.000000
1.000000
1.000000
1.000000
1.000000
1.000000
1.000000
1.000000
1.000000
1.000000
1.000000
1.000000
1.000000
1.000000
1.000000
1.000000
1.000000
1.000000
1.000000
1.000000
1.000000
1.000000
1.000000
1.000000
1.000000
1.000000
1.000000
1.000000
1.000000
1.000000
1.000000
1.000000
1.000000
1.000000
1.000000
1.000000
1.000000
1.000000
1.000000
1.000000
1.000000
1.000000
1.000000
1.000000
1.000000
1.000000
1.000000
1.000000
1.000000
1.000000
1.000000
1.000000
1.000000
1.000000
1.000000
1.000000
1.000000
1.000000
1.000000
1.000000
1.000000
1.000000
1.000000
1.000000
1.000000
1.000000
1.000000
1.000000
1.000000
1.000000
1.000000
1.000000
1.000000
1.000000
1.000000
1.000000
1.000000
1.000000
1.000000
1.000000
1.000000
1.000000
1.000000
1.000000
1.000000
1.000000
1.000000
1.000000
1.000000
1.000000
1.000000
1.000000
1.000000
1.000000
1.000000
1.000000
1.000000
1.000000
1.000000
1.000000
1.000000
1.000000
1.000000
1.000000
1.000000
1.000000
1.000000
1.000000
1.000000
1.000000
1.000000
1.000000
1.000000
1.000000
1.000000
1.000000
1.000000
1.000000
1.000000
1.000000
1.000000
1.000000
1.000000
1.000000
1.000000
1.000000
1.000000
1.000000
1.000000
1.000000
1.000000
1.000000
1.000000
1.000000
1.000000
1.000000
1.000000
1.000000
1.000000
1.000000
1.000000
1.000000
1.000000
1.000000
1.000000
1.000000
1.000000
1.000000
1.000000
1.000000
1.000000
1.000000
1.000000
1.000000
1.000000
1.000000
1.000000
1.000000
1.000000
1.000000
1.000000
1.000000
1.000000
1.000000
1.000000
1.000000
1.000000
1.000000
1.000000
1.000000
1.000000
1.000000
1.000000
1.000000
1.000000
1.000000
1.000000
1.000000
1.000000
1.000000
1.000000
1.000000
1.000000
1.000000
1.000000
1.000000
1.000000
1.000000
1.000000
1.000000
1.000000
1.000000
1.000000
1.000000
1.000000
1.000000
1.000000
1.000000
1.000000
1.000000
1.000000
1.000000
1.000000
1.000000
1.000000
1.000000
1.000000
1.000000
1.000000
1.000000
1.000000
1.000000
1.000000
1.000000
1.000000
1.000000
1.000000
1.000000
1.000000
1.000000
1.000000
1.000000
1.000000
1.000000
1.000000
1.000000
1.000000
1.000000
1.000000
1.000000
1.000000
1.000000
1.000000
1.000000
1.000000
1.000000
1.000000
1.000000
1.000000
1.000000
1.000000
1.000000
1.000000
1.000000
1.000000
1.000000
1.000000
1.000000
1.000000
1.000000
1.000000
1.000000
1.000000
1.000000
1.000000
1.000000
1.000000
1.000000
1.000000
1.000000
1.000000
1.000000
1.000000
1.000000
1.000000
1.000000
1.000000
1.000000
1.000000
1.000000
1.000000
1.000000
1.000000
1.000000
1.000000
1.000000
1.000000
1.000000
1.000000
1.000000
1.000000
1.000000
1.000000
1.000000
1.000000
1.000000
1.000000
1.000000
1.000000
1.000000
1.000000
1.000000
1.000000
1.000000
1.000000
1.000000
1.000000
1.000000
1.000000
1.000000
1.000000
1.000000
1.000000
1.000000
1.000000
1.000000
1.000000
1.000000
1.000000
1.000000
1.000000
1.000000
1.000000
1.000000
1.000000
1.000000
1.000000
1.000000
1.000000
1.000000
1.000000
1.000000
1.000000
1.000000
1.000000
1.000000
1.000000
1.000000
1.000000
1.000000
1.000000
1.000000
1.000000
1.000000
1.000000
1.000000
1.000000
1.000000
1.000000
1.000000
1.000000
1.000000
1.000000
1.000000
1.000000
1.000000
1.000000
1.000000
1.000000
1.000000
1.000000
1.000000
1.000000
1.000000
1.000000
1.000000
1.000000
1.000000
1.000000
1.000000
1.000000
1.000000
1.000000
1.000000
1.000000
1.000000
1.000000
1.000000
1.000000
1.000000
1.000000
1.000000
1.000000
1.000000
1.000000
1.000000
1.000000
1.000000
1.000000
1.000000
1.000000
1.000000
1.000000
1.000000
1.000000
1.000000
1.000000
1.000000
1.000000
1.000000
1.000000
1.000000
1.000000
1.000000
1.000000
1.000000
1.000000
1.000000
1.000000
1.000000
1.000000
1.000000
1.000000
1.000000
1.000000
1.000000
1.000000
1.000000
1.000000
1.000000
1.000000
1.000000
1.000000
1.000000
1.000000
1.000000
1.000000
1.000000
1.000000
1.000000
1.000000
1.000000
1.000000
1.000000
1.000000
1.000000
1.000000
1.000000
1.000000
1.000000
1.000000
1.000000
1.000000
1.000000
1.000000
1.000000
1.000000
1.000000
1.000000
1.000000
1.000000
1.000000
1.000000
1.000000
1.000000
1.000000
1.000000
1.000000
1.000000
1.000000
1.000000
1.000000
1.000000
1.000000
1.000000
1.000000
1.000000
1.000000
1.000000
1.000000
1.000000
1.000000
1.000000
1.000000
1.000000
1.000000
1.000000
1.000000
1.000000
1.000000
1.000000
1.000000
1.000000
1.000000
1.000000
1.000000
1.000000
1.000000
1.000000
1.000000
1.000000
1.000000
1.000000
1.000000
1.000000
1.000000
1.000000
1.000000
1.000000
1.000000
1.000000
1.000000
1.000000
1.000000
1.000000
1.000000
1.000000
1.000000
1.000000
1.000000
1.000000
1.000000
1.000000
1.000000
1.000000
1.000000
1.000000
1.000000
1.000000
1.000000
1.000000
1.000000
1.000000
1.000000
1.000000
1.000000
1.000000
1.000000
1.000000
1.000000
1.000000
1.000000
1.000000
1.000000
1.000000
1.000000
1.000000
1.000000
1.000000
1.000000
1.000000
1.000000
1.000000
1.000000
1.000000
1.000000
1.000000
1.000000
1.000000
1.000000
1.000000
1.000000
1.000000
1.000000
1.000000
1.000000
1.000000
1.000000
1.000000
1.000000
1.000000
1.000000
1.000000
1.000000
1.000000
1.000000
1.000000
1.000000
1.000000
1.000000
1.000000
1.000000
1.000000
1.000000
1.000000
1.000000
1.000000
1.000000
1.000000
1.000000
1.000000
1.000000
1.000000
1.000000
1.000000
1.000000
1.000000
1.000000
1.000000
1.000000
1.000000
1.000000
1.000000
1.000000
1.000000
1.000000
1.000000
1.000000
1.000000
1.000000
1.000000
1.000000
1.000000
1.000000
1.000000
1.000000
1.000000
1.000000
1.000000
1.000000
1.000000
1.000000
1.000000
1.000000
1.000000
1.000000
1.000000
1.000000
1.000000
1.000000
1.000000
1.000000
1.000000
1.000000
1.000000
1.000000
1.000000
1.000000
1.000000
1.000000
1.000000
1.000000
1.000000
1.000000
1.000000
1.000000
1.000000
1.000000
1.000000
1.000000
1.000000
1.000000
1.000000
1.000000
1.000000
1.000000
1.000000
1.000000
1.000000
1.000000
1.000000
1.000000
1.000000
1.000000
1.000000
1.000000
1.000000
1.000000
1.000000
1.000000
1.000000
1.000000
1.000000
1.000000
1.000000
1.000000
1.000000
1.000000
1.000000
1.000000
1.000000
1.000000
1.000000
1.000000
1.000000
1.000000
1.000000
1.000000
1.000000
1.000000
1.000000
1.000000
1.000000
1.000000
1.000000
1.000000
1.000000
1.000000
1.000000
1.000000
1.000000
1.000000
1.000000
1.000000
1.000000
1.000000
1.000000
1.000000
1.000000
1.000000
1.000000
1.000000
1.000000
1.000000
1.000000
1.000000
1.000000
1.000000
1.000000
1.000000
1.000000
1.000000
1.000000
1.000000
1.000000
1.000000
1.000000
1.000000
1.000000
1.000000
1.000000
1.000000
1.000000
1.000000
1.000000
1.000000
1.000000
1.000000
1.000000
1.000000
1.000000
1.000000
1.000000
1.000000
1.000000
1.000000
1.000000
1.000000
1.000000
1.000000
1.000000
1.000000
1.000000
1.000000
1.000000
1.000000
1.000000
1.000000
1.000000
1.000000
1.000000
1.000000
1.000000
1.000000
1.000000
1.000000
1.000000
1.000000
1.000000
1.000000
1.000000
1.000000
1.000000
1.000000
1.000000
1.000000
1.000000
1.000000
1.000000
1.000000
1.000000
1.000000
1.000000
1.000000
1.000000
1.000000
1.000000
1.000000
1.000000
1.000000
1.000000
1.000000
1.000000
1.000000
1.000000
1.000000
1.000000
1.000000
1.000000
1.000000
1.000000
1.000000
1.000000
1.000000
1.000000
1.000000
1.000000
1.000000
1.000000
1.000000
1.000000
1.000000
1.000000
1.000000
1.000000
1.000000
1.000000
1.000000
1.000000
1.000000
1.000000
1.000000
1.000000
1.000000
1.000000
1.000000
1.000000
1.000000
1.000000
1.000000
1.000000
1.000000
1.000000
1.000000
1.000000
1.000000
1.000000
1.000000
1.000000
1.000000
1.000000
1.000000
1.000000
1.000000
1.000000
1.000000
1.000000
1.000000
1.000000
1.000000
1.000000
1.000000
1.000000
1.000000
1.000000
1.000000
1.000000
1.000000
1.000000
1.000000
1.000000
1.000000
1.000000
1.000000
1.000000
1.000000
1.000000
1.000000
1.000000
1.000000
1.000000
1.000000
1.000000
1.000000
1.000000
1.000000
1.000000
1.000000
1.000000
1.000000
1.000000
1.000000
1.000000
1.000000
1.000000
1.000000
1.000000
1.000000
1.000000
1.000000
1.000000
1.000000
1.000000
1.000000
1.000000
1.000000
1.000000
1.000000
1.000000
1.000000
1.000000
1.000000
1.000000
1.000000
1.000000
1.000000
1.000000
1.000000
1.000000
1.000000
1.000000
1.000000
1.000000
1.000000
1.000000
1.000000
1.000000
1.000000
1.000000
1.000000
1.000000
1.000000
1.000000
1.000000
1.000000
1.000000
1.000000
1.000000
1.000000
1.000000
1.000000
1.000000
1.000000
1.000000
1.000000
1.000000
1.000000
1.000000
1.000000
1.000000
1.000000
1.000000
1.000000
1.000000
1.000000
1.000000
1.000000
1.000000
1.000000
1.000000
1.000000
1.000000
1.000000
1.000000
1.000000
1.000000
1.000000
1.000000
1.000000
1.000000
1.000000
1.000000
1.000000
1.000000
1.000000
1.000000
1.000000
1.000000
1.000000
1.000000
1.000000
1.000000
1.000000
1.000000
1.000000
1.000000
1.000000
1.000000
1.000000
1.000000
1.000000
1.000000
1.000000
1.000000
1.000000
1.000000
1.000000
1.000000
1.000000
1.000000
1.000000
1.000000
1.000000
1.000000
1.000000
1.000000
1.000000
1.000000
1.000000
1.000000
1.000000
1.000000
1.000000
1.000000
1.000000
1.000000
1.000000
1.000000
1.000000
1.000000
1.000000
1.000000
1.000000
1.000000
1.000000
1.000000
1.000000
1.000000
1.000000
1.000000
1.000000
1.000000
1.000000
1.000000
1.000000
1.000000
1.000000
1.000000
1.000000
1.000000
1.000000
1.000000
1.000000
1.000000
1.000000
1.000000
1.000000
1.000000
1.000000
1.000000
1.000000
1.000000
1.000000
1.000000
1.000000
1.000000
1.000000
1.000000
1.000000
1.000000
1.000000
1.000000
1.000000
1.000000
1.000000
1.000000
1.000000
1.000000
1.000000
1.000000
1.000000
1.000000
1.000000
1.000000
1.000000
1.000000
1.000000
1.000000
1.000000
1.000000
1.000000
1.000000
1.000000
1.000000
1.000000
1.000000
1.000000
1.000000
1.000000
1.000000
1.000000
1.000000
1.000000
1.000000
1.000000
1.000000
1.000000
1.000000
1.000000
1.000000
1.000000
1.000000
1.000000
1.000000
1.000000
1.000000
1.000000
1.000000
1.000000
1.000000
1.000000
1.000000
1.000000
1.000000
1.000000
1.000000
1.000000
1.000000
1.000000
1.000000
1.000000
1.000000
1.000000
1.000000
1.000000
1.000000
1.000000
1.000000
1.000000
1.000000
1.000000
1.000000
1.000000
1.000000
1.000000
1.000000
1.000000
1.000000
1.000000
1.000000
1.000000
1.000000
1.000000
1.000000
1.000000
1.000000
1.000000
1.000000
1.000000
1.000000
1.000000
1.000000
1.000000
1.000000
1.000000
1.000000
1.000000
1.000000
1.000000
1.000000
1.000000
1.000000
1.000000
1.000000
1.000000
1.000000
1.000000
1.000000
1.000000
1.000000
1.000000
1.000000
1.000000
1.000000
1.000000
1.000000
1.000000
1.000000
1.000000
1.000000
1.000000
1.000000
1.000000
1.000000
1.000000
1.000000
1.000000
1.000000
1.000000
1.000000
1.000000
1.000000
1.000000
1.000000
1.000000
1.000000
1.000000
1.000000
1.000000
1.000000
1.000000
1.000000
1.000000
1.000000
1.000000
1.000000
1.000000
1.000000
1.000000
1.000000
VECTORS v double
-8.221495 -13.705040 0.000000
3.098779 -3.700916 0.000000
0.130252 -1.133090 0.000000
1.965450 -4.145349 0.000000
-11.672360 -0.655629 0.000000
10.840711 -15.919122 0.000000
-15.112802 -2.235451 0.000000
4.786994 -8.001798 0.000000
12.282850 -1.643047 0.000000
-2.868744 -2.148290 0.000000
5.678766 -6.015679 0.000000
1.511913 1.010209 0.000000
6.880555 -7.377836 0.000000
8.232565 -1.566569 0.000000
-3.971282 0.501942 0.000000
-2.713152 -6.142499 0.000000
12.877259 1.527273 0.000000
9.239126 8.295316 0.000000
-2.374571 3.770062 0.000000
-5.138291 -1.831877 0.000000
2.627132 16.445059 0.000000
-7.956313 5.912048 0.000000
4.880516 -2.444866 0.000000
-4.487543 10.571893 0.000000
-1.403731 7.864303 0.000000
2.630965 -13.726701 0.000000
-7.890241 3.323210 0.000000
5.360243 -9.594630 0.000000
0.355339 -7.144944 0.000000
-22.398781 3.686430 0.000000
2.083799 -6.749607 0.000000
8.175598 -0.799681 0.000000
-4.504640 -9.068333 0.000000
5.083945 -6.293074 0.000000
-3.319305 2.824562 0.000000
3.961728 -6.062708 0.000000
-1.030488 16.393732 0.000000
7.547336 8.038737 0.000000
-0.544444 -8.416886 0.000000
9.622860 -4.141542 0.000000
-1.048204 2.565532 0.000000
6.305285 -2.983674 0.000000
6.439628 -0.731727 0.000000
1.936409 -0.680190 0.000000
1.301323 0.134902 0.000000
-4.097851 6.969925 0.000000
-6.823639 -14.431705 0.000000
5.385928 9.581967 0.000000
-0.276101 7.850990 0.000000
2.630965 13.726701 0.000000
-0.081962 -9.566983 0.000000
-9.713156 4.487244 0.000000
-5.219039 -2.229992 0.000000
-2.431342 3.579657 0.000000
-15.034245 -6.973264 0.000000
-12.336532 -5.255600 0.000000
-2.985898 -1.035771 0.000000
-9.140217 3.628515 0.000000
0.856381 7.161145 0.000000
3.524343 -11.274383 0.000000
-1.558815 18.796060 0.000000
-15.058996 0.215360 0.000000
-0.560030 5.891874 0.000000
14.670930 3.237408 0.000000
5.293591 4.250665 0.000000
3.211682 -11.908335 0.000000
0.414885 2.549865 0.000000
3.107548 6.312074 0.000000
-9.997568 5.213371 0.000000
8.702470 -6.687025 0.000000
-5.786603 -3.257839 0.000000
-15.768155 5.015638 0.000000
4.277490 -2.643285 0.000000
-3.734837 9.902680 0.000000
-0.277605 9.465982 0.000000
3.154090 -10.534385 0.000000
6.835050 -10.617898 0.000000
-0.673683 -1.355612 0.000000
3.178695 -3.282731 0.000000
-4.329666 -7.966863 0.000000
4.564956 -2.035655 0.000000
-3.277801 0.930414 0.000000
-4.492447 0.913360 0.000000
-2.414237 -11.828999 0.000000
-0.130088 -17.050872 0.000000
10.576081 -8.173869 0.000000
-4.160964 -17.765583 0.000000
9.992699 -3.385316 0.000000
8.977309 -4.658100 0.000000
0.057496 10.738001 0.000000
-3.380606 1.219157 0.000000
6.096024 5.351438 0.000000
-0.753284 -10.856716 0.000000
-5.348240 -2.384813 0.000000
-7.355389 -7.847078 0.000000
-0.803463 2.967120 0.000000
4.071207 7.454369 0.000000
5.411169 -7.107622 0.000000
6.835055 10.617898 0.000000
8.600461 6.185509 0.000000
-4.082839 -3.000906 0.000000
4.301974 -11.288638 0.000000
-5.177564 -11.736278 0.000000
0.403441 -15.257711 0.000000
8.110985 -4.132209 0.000000
-0.585681 5.160087 0.000000
0.787131 -0.786197 0.000000
12.610840 5.505267 0.000000
11.816254 -8.915630 0.000000
7.899457 -13.680296 0.000000
7.273362 4.002150 0.000000
-11.290184 -4.328096 0.000000
1.155644 8.802473 0.000000
-3.193365 -0.605196 0.000000
-12.677548 15.118489 0.000000
10.043168 -9.455669 0.000000
-3.708924 -2.503817 0.000000
-2.512232 13.439748 0.000000
-1.833396 -4.531483 0.000000
1.700242 -0.844853 0.000000
5.910571 1.417702 0.000000
4.720426 -1.245138 0.000000
-1.150245 17.926885 0.000000
-7.236795 17.159963 0.000000
6.097329 6.411254 0.000000
1.152381 -6.318627 0.000000
-0.229975 -17.706974 0.000000
-2.846989 -2.715975 0.000000
0.631522 -13.875015 0.000000
-7.219479 1.667484 0.000000
-1.451993 6.980597 0.000000
-9.999782 -5.019631 0.000000
8.967416 8.962077 0.000000
-10.132606 1.894996 0.000000
7.697525 -0.379767 0.000000
5.489216 -3.111276 0.000000
-3.865592 2.767365 0.000000
0.161824 -7.755982 0.000000
-5.817726 -14.505254 0.000000
-6.939494 3.090113 0.000000
-5.694334 -6.289209 0.000000
13.356557 -4.613267 0.000000
-3.229962 9.962451 0.000000
-5.019543 -5.683470 0.000000
-3.883169 7.888778 0.000000
-11.099043 -2.778498 0.000000
0.024926 22.356712 0.000000
10.605465 -8.999415 0.000000
-1.995409 10.927773 0.000000
1.128128 6.319422 0.000000
-2.581562 -7.111231 0.000000
-0.235729 -18.097313 0.000000
3.186882 -10.664382 0.000000
2.513121 5.314272 0.000000
2.514390 -4.219239 0.000000
14.883344 -0.496591 0.000000
-1.665397 4.039088 0.000000
3.149001 10.777177 0.000000
-4.993359 -8.605652 0.000000
-1.693809 -17.931408 0.000000
-1.606307 5.950057 0.000000
5.984677 5.445624 0.000000
2.946703 -8.480582 0.000000
-5.881061 -13.327147 0.000000
6.672874 6.397965 0.000000
13.084511 2.472128 0.000000
2.277051 4.277366 0.000000
-3.814773 -6.225793 0.000000
-8.556798 0.163096 0.000000
3.572918 8.165719 0.000000
2.792380 15.382474 0.000000
0.443132 0.599084 0.000000
-2.202179 4.696675 0.000000
-7.464238 11.721702 0.000000
2.652635 7.004738 0.000000
4.837053 -9.997753 0.000000
-5.551890 -12.757171 0.000000
-5.691265 -6.814167 0.000000
-3.179558 -6.686155 0.000000
3.529393 -1.559228 0.000000
7.073148 -8.014765 0.000000
4.925226 -2.403067 0.000000
-5.248760 4.893584 0.000000
-2.501449 3.848210 0.000000
-4.061883 -0.216331 0.000000
-3.169496 -6.536817 0.000000
-3.477549 2.087545 0.000000
6.019525 10.823295 0.000000
-8.526561 8.549834 0.000000
-10.852718 -3.892650 0.000000
3.662713 -11.471707 0.000000
4.820950 -7.123266 0.000000
-6.445195 3.711105 0.000000
1.477119 11.541676 0.000000
-7.970615 3.743598 0.000000
3.398743 15.066051 0.000000
-7.835488 0.203218 0.000000
1.629827 1.015377 0.000000
-9.464162 -3.448700 0.000000
4.837053 9.997753 0.000000
-2.908032 -4.334353 0.000000
11.868643 -4.530323 0.000000
6.580217 -14.985160 0.000000
2.503598 -1.738951 0.000000
5.309532 9.328740 0.000000
2.742791 -1.767447 0.000000
-8.128761 8.370622 0.000000
-15.913902 3.050295 0.000000
-1.993102 -12.243342 0.000000
-7.271286 -10.408794 0.000000
-2.120674 -11.785902 0.000000
-0.818244 -0.331255 0.000000
2.408144 -2.823777 0.000000
4.276745 5.683659 0.000000
-2.201751 9.665113 0.000000
0.958027 -10.586147 0.000000
6.417767 -3.984519 0.000000
-3.851383 10.792443 0.000000
9.422434 -0.040958 0.000000
-1.388604 4.767958 0.000000
4.069378 -2.673455 0.000000
1.530650 -8.758689 0.000000
0.924380 7.847886 0.000000
-14.046660 0.285724 0.000000
0.748817 7.928896 0.000000
-5.612056 -0.288118 0.000000
-3.936118 -8.250766 0.000000
-3.772205 -5.157454 0.000000
-0.578277 -3.616421 0.000000
-2.476888 -6.720594 0.000000
4.005168 -1.865996 0.000000
2.690454 -7.650944 0.000000
0.758517 6.400090 0.000000
-11.858763 9.965491 0.000000
-3.715697 8.326057 0.000000
-5.364319 -7.655939 0.000000
-0.483320 -9.501782 0.000000
-7.391699 -4.243580 0.000000
3.230215 -8.891517 0.000000
-7.563506 1.905487 0.000000
13.358922 2.994978 0.000000
0.073590 9.926700 0.000000
4.531522 7.545135 0.000000
-10.901301 4.011337 0.000000
-0.613092 -4.400893 0.000000
-1.968160 4.213200 0.000000
-10.854114 2.671674 0.000000
1.227085 3.997179 0.000000
-3.933008 8.251454 0.000000
-1.080238 -2.213637 0.000000
1.889738 0.364090 0.000000
5.490948 -5.649067 0.000000
-9.507980 4.846523 0.000000
-2.469394 -8.542949 0.000000
-6.746716 1.445401 0.000000
10.533525 -5.782491 0.000000
-10.617718 6.182777 0.000000
-5.506159 0.123324 0.000000
-9.513342 -7.212958 0.000000
-4.043803 18.505758 0.000000
8.621797 1.143018 0.000000
9.156660 -17.219337 0.000000
2.338995 1.517074 0.000000
-1.321997 -3.317696 0.000000
0.618118 -2.356260 0.000000
-1.103533 -11.356974 0.000000
-5.244809 -3.485338 0.000000
-5.020350 1.773603 0.000000
-3.798258 0.740876 0.000000
-8.075609 18.283786 0.000000
-8.353540 -2.989794 0.000000
-7.803232 6.456485 0.000000
-3.961020 9.972425 0.000000
3.507133 -1.400468 0.000000
-6.460161 6.602235 0.000000
-3.816305 -16.061779 0.000000
-5.286940 -10.632774 0.000000
-5.163223 5.021524 0.000000
-1.179633 6.598981 0.000000
-2.375568 13.125599 0.000000
-12.799513 5.700940 0.000000
0.650570 -4.005330 0.000000
-8.137463 3.388705 0.000000
-9.333043 -4.134303 0.000000
5.626195 -11.301623 0.000000
-0.577739 -3.362126 0.000000
0.075196 -2.417674 0.000000
-6.352731 11.129485 0.000000
-4.122115 3.272666 0.000000
2.033443 13.158960 0.000000
0.336595 -7.056761 0.000000
-6.389889 23.291966 0.000000
3.477789 6.703173 0.000000
-13.446679 -0.566979 0.000000
2.395004 1.698103 0.000000
-1.330365 4.064636 0.000000
-5.095791 2.675525 0.000000
5.959185 -6.419458 0.000000
2.156758 11.810109 0.000000
-2.513882 11.307118 0.000000
-7.200678 -7.918312 0.000000
8.595722 -7.982270 0.000000
-1.507084 -7.797066 0.000000
-4.582234 5.812101 0.000000
-10.320535 -3.391140 0.000000