# vtk DataFile Version 4.0
hesp visualization file
ASCII
DATASET UNSTRUCTURED_GRID
POINTS 1250 double
35.322980 1.026331 4.000000
30.609091 -0.659100 4.000000
34.051835 5.925205 4.000000
32.731874 7.868613 4.000000
31.227325 4.135082 4.000000
30.201981 13.599860 4.000000
32.576290 10.512496 4.000000
32.189349 11.473984 4.000000
31.205902 14.938019 4.000000
33.776368 12.950099 4.000000
32.119723 12.471472 4.000000
31.756994 15.014746 4.000000
31.940435 15.188842 4.000000
31.621902 16.784748 4.000000
31.491061 17.608215 4.000000
28.814390 16.564405 4.000000
31.210518 19.369951 4.000000
32.046910 15.421623 4.000000
28.857360 22.212389 4.000000
29.852881 18.118447 4.000000
33.731538 22.037353 4.000000
32.062536 29.825911 4.000000
34.106824 24.800233 4.000000
32.155132 30.425840 4.000000
31.307603 28.265322 4.000000
31.469205 -14.821127 4.000000
33.261895 0.658393 4.000000
33.772492 -5.592533 4.000000
31.059631 2.185233 4.000000
30.147132 8.185313 4.000000
30.303381 5.042207 4.000000
31.270940 7.785598 4.000000
30.863376 13.365145 4.000000
33.405100 14.074106 4.000000
31.195392 13.483607 4.000000
30.050393 13.381251 4.000000
30.327579 12.449245 4.000000
32.073601 14.816763 4.000000
31.794157 17.480588 4.000000
33.900766 15.364056 4.000000
30.901683 14.259281 4.000000
32.373376 16.794555 4.000000
32.554241 15.949261 4.000000
33.728863 20.166318 4.000000
31.172298 24.018089 4.000000
32.050488 23.136364 4.000000
31.606912 21.997526 4.000000
33.785914 34.767402 4.000000
31.505408 27.469735 4.000000
31.469205 44.005140 4.000000
31.852994 -5.087931 4.000000
35.692968 1.305324 4.000000
33.478725 2.039201 4.000000
29.751203 8.138912 4.000000
36.100331 3.104220 4.000000
31.436383 9.687524 4.000000
32.149805 8.652641 4.000000
30.942797 5.212624 4.000000
30.451980 13.411646 4.000000
33.244590 12.101018 4.000000
33.504571 11.933118 4.000000
28.657407 15.518089 4.000000
35.877805 13.868522 4.000000
34.330666 13.772193 4.000000
32.228417 13.797727 4.000000
32.676755 17.001843 4.000000
29.911672 20.331884 4.000000
31.268276 20.489210 4.000000
32.789631 18.726732 4.000000
33.975589 16.441775 4.000000
32.217911 25.923751 4.000000
32.954466 18.133890 4.000000
32.110643 22.923184 4.000000
33.607339 28.167991 4.000000
31.819376 34.251200 4.000000
31.459381 -3.821873 4.000000
34.409771 -9.250567 4.000000
31.448267 5.149781 4.000000
36.615939 2.460428 4.000000
31.025995 3.881036 4.000000
31.320636 3.801351 4.000000
30.434638 8.378304 4.000000
30.411814 11.071537 4.000000
33.519738 9.292183 4.000000
34.401364 6.275377 4.000000
34.445329 16.376039 4.000000
33.797578 14.544696 4.000000
34.497456 11.649535 4.000000
32.157522 15.765560 4.000000
34.723863 15.932346 4.000000
31.161396 17.708847 4.000000
35.552165 18.207113 4.000000
31.752364 13.912434 4.000000
30.538426 22.725341 4.000000
30.351764 19.010439 4.000000
36.415870 26.832006 4.000000
35.701173 28.873032 4.000000
29.574396 26.866199 4.000000
34.409776 38.434580 4.000000
31.452371 33.008480 4.000000
32.369199 1.989205 4.000000
31.221315 3.303164 4.000000
31.562540 -6.823417 4.000000
32.960583 6.153764 4.000000
30.705491 8.799892 4.000000
30.758339 11.226507 4.000000
33.219137 7.772594 4.000000
33.067185 9.825182 4.000000
32.246511 9.350921 4.000000
33.017089 12.759567 4.000000
30.688092 13.821631 4.000000
34.698448 10.449323 4.000000
35.900553 17.331925 4.000000
32.486312 15.365015 4.000000
29.962384 14.484634 4.000000
35.505770 14.501712 4.000000
30.985759 20.283285 4.000000
32.667927 17.975518 4.000000
33.453133 24.672919 4.000000
31.504669 21.426809 4.000000
31.171573 23.285012 4.000000
34.747141 24.024927 4.000000
35.068505 32.406083 4.000000
34.347895 26.191596 4.000000
29.870433 28.886359 4.000000
30.180286 -5.028365 4.000000
31.394241 -8.292070 4.000000
37.862092 5.661160 4.000000
29.206694 6.591035 4.000000
32.208879 6.286248 4.000000
31.228601 5.891051 4.000000
31.269830 8.398345 4.000000
32.594582 12.142037 4.000000
33.395815 11.060528 4.000000
33.886141 9.128715 4.000000
29.463638 12.010701 4.000000
34.876791 11.633603 4.000000
32.350869 15.103315 4.000000
33.935005 16.155036 4.000000
34.401825 10.908413 4.000000
34.735953 17.026343 4.000000
34.004250 18.708676 4.000000
33.933477 23.417378 4.000000
30.807473 19.924635 4.000000
29.298702 23.930619 4.000000
32.521371 18.275540 4.000000
30.398750 17.967955 4.000000
40.131885 22.852582 4.000000
31.394633 37.476195 4.000000
30.180265 34.212391 4.000000
31.253394 -0.819206 4.000000
36.471988 -2.831649 4.000000
31.861427 -1.088501 4.000000
33.014849 2.860936 4.000000
29.679825 10.728305 4.000000
30.672132 6.427222 4.000000
33.990013 8.084821 4.000000
36.784074 11.589400 4.000000
29.814807 7.085866 4.000000
31.537208 13.417958 4.000000
31.641594 9.767076 4.000000
35.731543 15.085424 4.000000
34.088028 13.715126 4.000000
31.609096 14.461628 4.000000
32.724738 22.881177 4.000000
30.745209 17.603198 4.000000
32.059818 24.238116 4.000000
34.705258 23.108286 4.000000
32.600612 22.114972 4.000000
30.241812 20.968412 4.000000
32.564536 26.667822 4.000000
33.824209 18.946078 4.000000
31.198425 27.473761 4.000000
32.663626 29.474652 4.000000
31.648614 30.541069 4.000000
40.502367 -10.013515 4.000000
33.501318 -1.683498 4.000000
38.214205 0.957753 4.000000
32.129673 6.821194 4.000000
31.455185 6.955255 4.000000
32.211451 4.730019 4.000000
34.614789 9.713933 4.000000
37.977015 9.476744 4.000000
31.106086 10.674108 4.000000
33.315150 12.984733 4.000000
32.574798 13.808513 4.000000
34.454291 12.260493 4.000000
34.243129 17.351011 4.000000
36.275988 19.083962 4.000000
36.977200 17.882997 4.000000
32.909823 17.584452 4.000000
35.419562 19.189710 4.000000
35.717532 20.232731 4.000000
34.812812 17.278525 4.000000
30.989762 21.089627 4.000000
34.446797 18.937356 4.000000
34.233267 19.665110 4.000000
35.254739 30.634319 4.000000
33.960285 19.267232 4.000000
40.502367 39.197528 4.000000
30.901468 0.783473 4.000000
31.166588 1.649309 4.000000
34.509955 -3.903854 4.000000
37.374718 6.613844 4.000000
32.365948 7.121436 4.000000
34.909647 5.865423 4.000000
30.640070 12.088194 4.000000
36.570546 10.091739 4.000000
36.091271 10.008113 4.000000
35.145810 8.565475 4.000000
35.189927 10.416097 4.000000
36.837074 15.516781 4.000000
38.513889 16.241122 4.000000
32.742638 15.636997 4.000000
31.631100 18.923296 4.000000
35.687052 18.756921 4.000000
34.243025 18.299550 4.000000
36.494546 16.178111 4.000000
30.579311 18.768779 4.000000
31.596148 20.124325 4.000000
34.253937 20.466576 4.000000
34.574501 25.836821 4.000000
37.575876 32.120880 4.000000
29.229060 29.070398 4.000000
33.244360 31.020712 4.000000
32.987708 0.431505 4.000000
32.430824 -6.269403 4.000000
33.049456 -0.296602 4.000000
34.922676 3.402214 4.000000
35.330781 11.047660 4.000000
32.782409 3.858748 4.000000
37.652097 8.897268 4.000000
38.137931 11.341014 4.000000
35.249359 12.899852 4.000000
38.240963 10.871299 4.000000
34.210904 12.386267 4.000000
37.794251 13.995804 4.000000
34.162844 14.838125 4.000000
38.920860 17.582011 4.000000
37.639942 16.563897 4.000000
36.172696 14.042677 4.000000
36.701618 17.067579 4.000000
31.469661 19.353635 4.000000
33.415971 22.361295 4.000000
36.712978 22.936357 4.000000
35.440520 24.007607 4.000000
33.903552 26.007751 4.000000
33.041816 29.560341 4.000000
32.430994 35.453486 4.000000
32.618230 28.510588 4.000000
31.823141 -2.952435 4.000000
34.060492 -1.151912 4.000000
36.585580 3.594096 4.000000
33.844244 2.446427 4.000000
36.262814 5.515206 4.000000
38.871283 9.080219 4.000000
31.936125 8.383185 4.000000
35.986452 12.813547 4.000000
34.921051 10.309616 4.000000
39.380644 16.636569 4.000000
34.698576 12.395270 4.000000
35.572224 10.822507 4.000000
36.686834 13.097849 4.000000
35.323875 13.757935 4.000000
37.242209 17.118616 4.000000
38.894448 15.033738 4.000000
34.499598 17.399719 4.000000
35.108353 14.653462 4.000000
32.066623 20.739798 4.000000
35.057707 19.519953 4.000000
38.320990 21.950868 4.000000
30.922760 29.188136 4.000000
36.399998 25.201333 4.000000
32.678345 25.765364 4.000000
30.880287 29.938713 4.000000
31.153807 -3.481197 4.000000
34.277774 -3.838811 4.000000
36.534769 11.513340 4.000000
34.222943 2.301175 4.000000
37.553948 9.524427 4.000000
36.291184 8.066821 4.000000
36.417241 9.695759 4.000000
34.677739 8.104488 4.000000
36.614936 11.101147 4.000000
36.424178 13.633988 4.000000
38.262182 13.811072 4.000000
37.765785 13.320192 4.000000
37.607118 18.239350 4.000000
34.927690 16.462772 4.000000
37.346927 16.153307 4.000000
34.349003 16.843505 4.000000
39.034540 15.243685 4.000000
38.324621 20.741239 4.000000
38.460540 21.172737 4.000000
35.610828 23.268153 4.000000
36.437155 27.497967 4.000000
32.470854 27.658490 4.000000
39.479663 19.858542 4.000000
33.276359 32.463648 4.000000
31.125569 32.750368 4.000000
31.646098 -0.834231 4.000000
31.067440 -3.193517 4.000000
40.160879 2.899007 4.000000
38.856532 6.039499 4.000000
37.995903 5.414984 4.000000
35.872589 6.582081 4.000000
34.692476 9.458213 4.000000
33.799466 8.608268 4.000000
35.298127 12.538212 4.000000
38.500379 11.544562 4.000000
38.350996 10.622833 4.000000
37.022115 12.342896 4.000000
39.683075 16.818196 4.000000
38.050357 14.852648 4.000000
37.984218 20.242649 4.000000
34.617160 18.736773 4.000000
34.303377 19.386391 4.000000
37.584449 20.134965 4.000000
37.034974 18.242252 4.000000
36.573331 24.763955 4.000000
38.879525 21.696439 4.000000
34.599704 19.299597 4.000000
36.850524 31.907333 4.000000
31.041231 32.376847 4.000000
31.451792 31.779233 4.000000
33.395787 -0.906619 4.000000
33.649621 1.050697 4.000000
33.608031 -2.103203 4.000000
35.672931 2.686147 4.000000
35.884642 4.457619 4.000000
39.027761 5.242253 4.000000
38.387403 6.726510 4.000000
40.273704 8.517794 4.000000
36.491442 10.783775 4.000000
36.955246 11.092719 4.000000
36.539173 12.444851 4.000000
39.513661 13.353918 4.000000
36.459311 14.619867 4.000000
37.853420 16.465667 4.000000
41.224088 15.961916 4.000000
36.031290 19.803686 4.000000
38.711162 17.014282 4.000000
36.620268 18.224232 4.000000
[...]
POINT_DATA 1250
SCALARS m double
LOOKUP_TABLE default
1.000000
1.000000
1.000000
1.000000
1.000000
1.000000
1.000000
1.000000
1.000000
1.000000
1.000000
1.000000
1.000000
1.000000
1.000000
1.000000
1.000000
1.000000
1.000000
1.000000
1.000000
1.000000
1.000000
1.000000
1.000000
1.000000
1.000000
1.000000
1.000000
1.000000
1.000000
1.000000
1.000000
1.000000
1.000000
1.000000
1.000000
1.000000
1.000000
1.000000
1.000000
1.000000
1.000000
1.000000
1.000000
1.000000
1.000000
1.000000
1.000000
1.000000
1.000000
1.000000
1.000000
1.000000
1.000000
1.000000
1.000000
1.000000
1.000000
1.000000
1.000000
1.000000
1.000000
1.000000
1.000000
1.000000
1.000000
1.000000
1.000000
1.000000
1.000000
1.000000
1.000000
1.000000
1.000000
1.000000
1.000000
1.000000
1.000000
1.000000
1.000000
1.000000
1.000000
1.000000
1.000000
1.000000
1.000000
1.000000
1.000000
1.000000
1.000000
1.000000
1.000000
1.000000
1.000000
1.000000
1.000000
1.000000
1.000000
1.000000
1.000000
1.000000
1.000000
1.000000
1.000000
1.000000
1.000000
1.000000
1.000000
1.000000
1.000000
1.000000
1.000000
1.000000
1.000000
1.000000
1.000000
1.000000
1.000000
1.000000
1.000000
1.000000
1.000000
1.000000
1.000000
1.000000
1.000000
1.000000
1.000000
1.000000
1.000000
1.000000
1.000000
1.000000
1.000000
1.000000
1.000000
1.000000
1.000000
1.000000
1.000000
1.000000
1.000000
1.000000
1.000000
1.000000
1.000000
1.000000
1.000000
1.000000
1.000000
1.000000
1.000000
1.000000
1.000000
1.000000
1.000000
1.000000
1.000000
1.000000
1.000000
1.000000
1.000000
1.000000
1.000000
1.000000
1.000000
1.000000
1.000000
1.000000
1.000000
1.000000
1.000000
1.000000
1.000000
1.000000
1.000000
1.000000
1.000000
1.000000
1.000000
1.000000
1.000000
1.000000
1.000000
1.000000
1.000000
1.000000
1.000000
1.000000
1.000000
1.000000
1.000000
1.000000
1.000000
1.000000
1.000000
1.000000
1.000000
1.000000
1.000000
1.000000
1.000000
1.000000
1.000000
1.000000
1.000000
1.000000
1.000000
1.000000
1.000000
1.000000
1.000000
1.000000
1.000000
1.000000
1.000000
1.000000
1.000000
1.000000
1.000000
1.000000
1.000000
1.000000
1.000000
1.000000
1.000000
1.000000
1.000000
1.000000
1.000000
1.000000
1.000000
1.000000
1.000000
1.000000
1.000000
1.000000
1.000000
1.000000
1.000000
1.000000
1.000000
1.000000
1.000000
1.000000
1.000000
1.000000
1.000000
1.000000
1.000000
1.000000
1.000000
1.000000
1.000000
1.000000
1.000000
1.000000
1.000000
1.000000
1.000000
1.000000
1.000000
1.000000
1.000000
1.000000
1.000000
1.000000
1.000000
1.000000
1.000000
1.000000
1.000000
1.000000
1.000000
1.000000
1.000000
1.000000
1.000000
1.000000
1.000000
1.000000
1.000000
1.000000
1.000000
1.000000
1.000000
1.000000
1.000000
1.000000
1.000000
1.000000
1.000000
1.000000
1.000000
1.000000
1.000000
1.000000
1.000000
1.000000
1.000000
1.000000
1.000000
1.000000
1.000000
1.000000
1.000000
1.000000
1.000000
1.000000
1.000000
1.000000
1.000000
1.000000
1.000000
1.000000
1.000000
1.000000
1.000000
1.000000
1.000000
1.000000
1.000000
1.000000
1.000000
1.000000
1.000000
1.000000
1.000000
1.000000
1.000000
1.000000
1.000000
1.000000
1.000000
1.000000
1.000000
1.000000
1.000000
1.000000
1.000000
1.000000
1.000000
1.000000
1.000000
1.000000
1.000000
1.000000
1.000000
1.000000
1.000000
1.000000
1.000000
1.000000
1.000000
1.000000
1.000000
1.000000
1.000000
1.000000
1.000000
1.000000
1.000000
1.000000
1.000000
1.000000
1.000000
1.000000
1.000000
1.000000
1.000000
1.000000
1.000000
1.000000
1.000000
1.000000
1.000000
1.000000
1.000000
1.000000
1.000000
1.000000
1.000000
1.000000
1.000000
1.000000
1.000000
1.000000
1.000000
1.000000
1.000000
1.000000
1.000000
1.000000
1.000000
1.000000
1.000000
1.000000
1.000000
1.000000
1.000000
1.000000
1.000000
1.000000
1.000000
1.000000
1.000000
1.000000
1.000000
1.000000
1.000000
1.000000
1.000000
1.000000
1.000000
1.000000
1.000000
1.000000
1.000000
1.000000
1.000000
1.000000
1.000000
1.000000
1.000000
1.000000
1.000000
1.000000
1.000000
1.000000
1.000000
1.000000
1.000000
1.000000
1.000000
1.000000
1.000000
1.000000
1.000000
1.000000
1.000000
1.000000
1.000000
1.000000
1.000000
1.000000
1.000000
1.000000
1.000000
1.000000
1.000000
1.000000
1.000000
1.000000
1.000000
1.000000
1.000000
1.000000
1.000000
1.000000
1.000000
1.000000
1.000000
1.000000
1.000000
1.000000
1.000000
1.000000
1.000000
1.000000
1.000000
1.000000
1.000000
1.000000
1.000000
1.000000
1.000000
1.000000
1.000000
1.000000
1.000000
1.000000
1.000000
1.000000
1.000000
1.000000
1.000000
1.000000
1.000000
1.000000
1.000000
1.000000
1.000000
1.000000
1.000000
1.000000
1.000000
1.000000
1.000000
1.000000
1.000000
1.000000
1.000000
1.000000
1.000000
1.000000
1.000000
1.000000
1.000000
1.000000
1.000000
1.000000
1.000000
1.000000
1.000000
1.000000
1.000000
1.000000
1.000000
1.000000
1.000000
1.000000
1.000000
1.000000
1.000000
1.000000
1.000000
1.000000
1.000000
1.000000
1.000000
1.000000
1.000000
1.000000
1.000000
1.000000
1.000000
1.000000
1.000000
1.000000
1.000000
1.000000
1.000000
1.000000
1.000000
1.000000
1.000000
1.000000
1.000000
1.000000
1.000000
1.000000
1.000000
1.000000
1.000000
1.000000
1.000000
1.000000
1.000000
1.000000
1.000000
1.000000
1.000000
1.000000
1.000000
1.000000
1.000000
1.000000
1.000000
1.000000
1.000000
1.000000
1.000000
1.000000
1.000000
1.000000
1.000000
1.000000
1.000000
1.000000
1.000000
1.000000
1.000000
1.000000
1.000000
1.000000
1.000000
1.000000
1.000000
1.000000
1.000000
1.000000
1.000000
1.000000
1.000000
1.000000
1.000000
1.000000
1.000000
1.000000
1.000000
1.000000
1.000000
1.000000
1.000000
1.000000
1.000000
1.000000
1.000000
1.000000
1.000000
1.000000
1.000000
1.000000
1.000000
1.000000
1.000000
1.000000
1.000000
1.000000
1.000000
1.000000
1.000000
1.000000
1.000000
1.000000
1.000000
1.000000
1.000000
1.000000
1.000000
1.000000
1.000000
1.000000
1.000000
1.000000
1.000000
1.000000
1.000000
1.000000
1.000000
1.000000
1.000000
1.000000
1.000000
1.000000
1.000000
1.000000
1.000000
1.000000
1.000000
1.000000
1.000000
1.000000
1.000000
1.000000
1.000000
1.000000
1.000000
1.000000
1.000000
1.000000
1.000000
1.000000
1.000000
1.000000
1.000000
1.000000
1.000000
1.000000
1.000000
1.000000
1.000000
1.000000
1.000000
1.000000
1.000000
1.000000
1.000000
1.000000
1.000000
1.000000
1.000000
1.000000
1.000000
1.000000
1.000000
1.000000
1.000000
1.000000
1.000000
1.000000
1.000000
1.000000
1.000000
1.000000
1.000000
1.000000
1.000000
1.000000
1.000000
1.000000
1.000000
1.000000
1.000000
1.000000
1.000000
1.000000
1.000000
1.000000
1.000000
1.000000
1.000000
1.000000
1.000000
1.000000
1.000000
1.000000
1.000000
1.000000
1.000000
1.000000
1.000000
1.000000
1.000000
1.000000
1.000000
1.000000
1.000000
1.000000
1.000000
1.000000
1.000000
1.000000
1.000000
1.000000
1.000000
1.000000
1.000000
1.000000
1.000000
1.000000
1.000000
1.000000
1.000000
1.000000
1.000000
1.000000
1.000000
1.000000
1.000000
1.000000
1.000000
1.000000
1.000000
1.000000
1.000000
1.000000
1.000000
1.000000
1.000000
1.000000
1.000000
1.000000
1.000000
1.000000
1.000000
1.000000
1.000000
1.000000
1.000000
1.000000
1.000000
1.000000
1.000000
1.000000
1.000000
1.000000
1.000000
1.000000
1.000000
1.000000
1.000000
1.000000
1.000000
1.000000
1.000000
1.000000
1.000000
1.000000
1.000000
1.000000
1.000000
1.000000
1.000000
1.000000
1.000000
1.000000
1.000000
1.000000
1.000000
1.000000
1.000000
1.000000
1.000000
1.000000
1.000000
1.000000
1.000000
1.000000
1.000000
1.000000
1.000000
1.000000
1.000000
1.000000
1.000000
1.000000
1.000000
1.000000
1.000000
1.000000
1.000000
1.000000
1.000000
1.000000
1.000000
1.000000
1.000000
1.000000
1.000000
1.000000
1.000000
1.000000
1.000000
1.000000
1.000000
1.000000
1.000000
1.000000
1.000000
1.000000
1.000000
1.000000
1.000000
1.000000
1.000000
1.000000
1.000000
1.000000
1.000000
1.000000
1.000000
1.000000
1.000000
1.000000
1.000000
1.000000
1.000000
1.000000
1.000000
1.000000
1.000000
1.000000
1.000000
1.000000
1.000000
1.000000
1.000000
1.000000
1.000000
1.000000
1.000000
1.000000
1.000000
1.000000
1.000000
1.000000
1.000000
1.000000
1.000000
1.000000
1.000000
1.000000
1.000000
1.000000
1.000000
1.000000
1.000000
1.000000
1.000000
1.000000
1.000000
1.000000
1.000000
1.000000
1.000000
1.000000
1.000000
1.000000
1.000000
1.000000
1.000000
1.000000
1.000000
1.000000
1.000000
1.000000
1.000000
1.000000
1.000000
1.000000
1.000000
1.000000
1.000000
1.000000
1.000000
1.000000
1.000000
1.000000
1.000000
1.000000
1.000000
1.000000
1.000000
1.000000
1.000000
1.000000
1.000000
1.000000
1.000000
1.000000
1.000000
1.000000
1.000000
1.000000
1.000000
1.000000
1.000000
1.000000
1.000000
1.000000
1.000000
1.000000
1.000000
1.000000
1.000000
1.000000
1.000000
1.000000
1.000000
1.000000
1.000000
1.000000
1.000000
1.000000
1.000000
1.000000
1.000000
1.000000
1.000000
1.000000
1.000000
1.000000
1.000000
1.000000
1.000000
1.000000
1.000000
1.000000
1.000000
1.000000
1.000000
1.000000
1.000000
1.000000
1.000000
1.000000
1.000000
1.000000
1.000000
1.000000
1.000000
1.000000
1.000000
1.000000
1.000000
1.000000
1.000000
1.000000
1.000000
1.000000
1.000000
1.000000
1.000000
1.000000
1.000000
1.000000
1.000000
1.000000
1.000000
1.000000
1.000000
1.000000
1.000000
1.000000
1.000000
1.000000
1.000000
1.000000
1.000000
1.000000
1.000000
1.000000
1.000000
1.000000
1.000000
1.000000
1.000000
1.000000
1.000000
1.000000
1.000000
1.000000
1.000000
1.000000
1.000000
1.000000
1.000000
1.000000
1.000000
1.000000
1.000000
1.000000
1.000000
1.000000
1.000000
1.000000
1.000000
1.000000
1.000000
1.000000
1.000000
1.000000
1.000000
1.000000
1.000000
1.000000
1.000000
1.000000
1.000000
1.000000
1.000000
1.000000
1.000000
1.000000
1.000000
1.000000
1.000000
1.000000
1.000000
1.000000
1.000000
1.000000
1.000000
1.000000
1.000000
1.000000
1.000000
1.000000
1.000000
1.000000
1.000000
1.000000
1.000000
1.000000
1.000000
1.000000
1.000000
1.000000
1.000000
1.000000
1.000000
1.000000
1.000000
1.000000
1.000000
1.000000
1.000000
1.000000
1.000000
1.000000
1.000000
1.000000
1.000000
1.000000
1.000000
1.000000
1.000000
1.000000
1.000000
1.000000
1.000000
1.000000
1.000000
1.000000
1.000000
1.000000
1.000000
1.000000
1.000000
1.000000
1.000000
1.000000
1.000000
1.000000
1.000000
1.000000
1.000000
1.000000
1.000000
1.000000
1.000000
1.000000
1.000000
1.000000
1.000000
1.000000
1.000000
1.000000
1.000000
1.000000
1.000000
1.000000
1.000000
1.000000
1.000000
1.000000
1.000000
1.000000
1.000000
1.000000
1.000000
1.000000
1.000000
1.000000
1.000000
1.000000
1.000000
1.000000
1.000000
1.000000
1.000000
1.000000
1.000000
1.000000
1.000000
1.000000
1.000000
1.000000
1.000000
1.000000
1.000000
1.000000
1.000000
1.000000
1.000000
1.000000
1.000000
1.000000
1.000000
1.000000
1.000000
1.000000
1.000000
1.000000
1.000000
1.000000
1.000000
1.000000
1.000000
1.000000
1.000000
1.000000
1.000000
1.000000
1.000000
1.000000
1.000000
1.000000
1.000000
1.000000
1.000000
1.000000
1.000000
1.000000
1.000000
1.000000
1.000000
1.000000
1.000000
1.000000
1.000000
1.000000
1.000000
1.000000
1.000000
1.000000
1.000000
1.000000
1.000000
1.000000
1.000000
1.000000
1.000000
1.000000
1.000000
1.000000
1.000000
1.000000
1.000000
1.000000
1.000000
1.000000
1.000000
1.000000
1.000000
1.000000
1.000000
1.000000
1.000000
1.000000
1.000000
1.000000
1.000000
1.000000
1.000000
1.000000
1.000000
1.000000
1.000000
1.000000
1.000000
1.000000
1.000000
1.000000
1.000000
1.000000
1.000000
1.000000
VECTORS v double
-8.142204 -13.922451 0.000000
2.925750 -3.542140 0.000000
-2.695975 4.936724 0.000000
2.128165 4.743002 0.000000
-13.747645 -5.517105 0.000000
-14.416762 0.457984 0.000000
1.182659 -4.803180 0.000000
4.443910 -5.804832 0.000000
5.369229 9.923007 0.000000
6.843212 7.307208 0.000000
6.363647 -5.584942 0.000000
-2.972429 11.478484 0.000000
-2.980277 -4.525635 0.000000
-11.531095 8.362673 0.000000
-8.881808 5.932337 0.000000
6.380851 -2.678282 0.000000
3.520886 -4.563810 0.000000
13.108293 3.119833 0.000000
-5.803767 3.795191 0.000000
-1.282558 -7.068473 0.000000
-0.181679 -9.066366 0.000000
-5.731333 7.904140 0.000000
-3.178315 18.600543 0.000000
-3.519792 0.419812 0.000000
-2.092644 1.993152 0.000000
2.630965 -13.726701 0.000000
0.622862 2.651623 0.000000
5.359980 -9.594969 0.000000
6.500277 0.173281 0.000000
-0.535701 6.278339 0.000000
-1.412760 -8.362167 0.000000
8.192487 -0.978169 0.000000
-3.396183 13.500226 0.000000
2.596364 4.877464 0.000000
1.445743 3.916705 0.000000
8.029361 8.138848 0.000000
-15.464272 3.091086 0.000000
-11.334124 -10.268112 0.000000
-3.611991 2.540109 0.000000
7.399516 -9.756240 0.000000
6.030212 -10.274528 0.000000
8.314495 4.631333 0.000000
-8.397834 3.579618 0.000000
-1.306182 19.233568 0.000000
1.229736 0.131196 0.000000
1.709376 -3.676076 0.000000
7.033640 -5.244803 0.000000
5.385140 9.585511 0.000000
-0.923036 8.015528 0.000000
2.630965 13.726701 0.000000
-0.081789 -9.565191 0.000000
7.176778 -4.205391 0.000000
-5.255021 -3.762557 0.000000
-5.917143 -3.902401 0.000000
5.684463 -9.875627 0.000000
-16.554422 -8.644415 0.000000
-2.957096 -0.764349 0.000000
-3.495056 -3.285449 0.000000
-1.063755 11.472884 0.000000
-3.390582 2.259925 0.000000
-12.681496 -2.290192 0.000000
-12.562613 5.518095 0.000000
12.392308 -3.035859 0.000000
0.796831 5.012285 0.000000
14.590905 -13.631742 0.000000
7.883299 -8.959307 0.000000
2.461008 8.420337 0.000000
-7.034224 1.363865 0.000000
-10.173643 -3.538541 0.000000
13.212909 -9.063308 0.000000
3.796332 -0.657125 0.000000
-2.629248 -7.470239 0.000000
-4.328935 -1.302805 0.000000
-3.512704 10.126523 0.000000
-0.277549 9.464419 0.000000
0.017507 -3.562148 0.000000
6.835050 -10.617898 0.000000
8.050313 -6.673056 0.000000
5.975920 -2.626558 0.000000
9.442892 3.627956 0.000000
-3.479590 -5.055246 0.000000
6.837801 -1.677808 0.000000
-3.605769 9.518683 0.000000
-6.602531 -7.784855 0.000000
5.202711 -16.185275 0.000000
0.518035 17.660356 0.000000
-10.389565 -7.830252 0.000000
7.083132 -11.155960 0.000000
-10.094371 2.568837 0.000000
5.698571 -3.957532 0.000000
-4.022536 0.265450 0.000000
-3.600047 -4.626577 0.000000
4.195670 -10.663927 0.000000
-10.341129 11.002773 0.000000
12.758271 -3.514511 0.000000
1.425687 7.286350 0.000000
4.146626 7.213965 0.000000
4.107347 17.694082 0.000000
6.835055 10.617898 0.000000
-0.019690 3.561761 0.000000
-4.971734 -0.423804 0.000000
6.271999 -6.389438 0.000000
-3.411938 -18.515901 0.000000
-11.921213 -2.911099 0.000000
-0.740648 -5.353076 0.000000
0.718350 5.193481 0.000000
2.190826 -1.255508 0.000000
12.517903 5.598420 0.000000
-12.275067 6.860112 0.000000
0.341313 0.146960 0.000000
3.377536 -15.079353 0.000000
-1.682837 -13.460833 0.000000
6.411715 3.085182 0.000000
-3.181309 -7.058706 0.000000
-15.096893 14.553754 0.000000
8.772885 0.600380 0.000000
-3.271627 -2.156248 0.000000
-7.837722 8.491180 0.000000
-2.301881 -4.446104 0.000000
3.194849 0.104885 0.000000
5.962667 1.368974 0.000000
0.040487 -4.293709 0.000000
-1.185018 17.865511 0.000000
-0.463226 -10.721076 0.000000
-1.573798 -0.298305 0.000000
-1.455174 -6.326875 0.000000
-1.995837 -10.927618 0.000000
3.852505 2.848286 0.000000
-12.363237 0.941788 0.000000
9.117905 1.406246 0.000000
-1.356000 6.813201 0.000000
-4.238977 7.243815 0.000000
1.254872 5.818806 0.000000
-6.809560 4.666033 0.000000
-17.283389 -14.140606 0.000000
-7.823798 -7.356773 0.000000
-2.966312 2.491696 0.000000
-3.567881 3.579281 0.000000
8.353134 -1.260417 0.000000
-16.583915 -7.247878 0.000000
1.717235 10.144568 0.000000
7.783269 1.482805 0.000000
-3.123509 7.044889 0.000000
-3.909518 -5.384514 0.000000
-3.207899 7.962564 0.000000
-9.139282 3.409636 0.000000
-5.216402 -5.413038 0.000000
10.624593 -8.987622 0.000000
-1.995402 10.927778 0.000000
-1.455325 6.326880 0.000000
4.903197 -6.067715 0.000000
-0.542728 -18.251603 0.000000
-4.292080 -1.374713 0.000000
-4.776458 -2.236638 0.000000
-10.508220 -3.531879 0.000000
-3.985651 -0.902390 0.000000
4.082824 -5.906734 0.000000
-2.990326 8.886361 0.000000
-7.877194 -3.484825 0.000000
-7.144067 -10.114498 0.000000
3.216408 -11.522582 0.000000
6.050483 5.659031 0.000000
7.413932 6.435288 0.000000
10.533427 16.325352 0.000000
6.966734 9.289899 0.000000
1.780099 -7.757948 0.000000
-0.136579 2.273285 0.000000
4.325791 -2.066690 0.000000
-12.133664 -2.591086 0.000000
-2.505557 -6.513979 0.000000
3.026102 15.270459 0.000000
-3.343259 -10.058175 0.000000
-0.150947 7.890196 0.000000
-7.948660 4.806042 0.000000
2.536780 7.169598 0.000000
4.837053 -9.997753 0.000000
-5.272433 -11.692133 0.000000
-11.205063 -5.582897 0.000000
-2.945631 -6.514022 0.000000
-8.078064 3.992427 0.000000
-1.202495 -2.087379 0.000000
7.026716 -12.394113 0.000000
-3.603556 4.459933 0.000000
-2.589411 3.885380 0.000000
3.641419 -0.049286 0.000000
-4.361572 9.846832 0.000000
-8.788566 3.895515 0.000000
-0.339610 -6.494839 0.000000
0.372267 18.521511 0.000000
-13.853174 1.401449 0.000000
-0.773401 -11.810662 0.000000
5.367971 -4.357390 0.000000
-3.274581 14.057645 0.000000
-6.911096 -8.207207 0.000000
-4.021424 -0.435948 0.000000
-1.607812 7.613195 0.000000
-2.911726 -12.741461 0.000000
1.605002 0.971009 0.000000
-4.588631 -12.415159 0.000000
4.837053 9.997753 0.000000
-2.901514 -4.334599 0.000000
11.988779 -2.972088 0.000000
0.485847 -13.239800 0.000000
0.545290 -9.366853 0.000000
7.151739 -6.745489 0.000000
-2.510346 -2.958970 0.000000
-6.461488 1.369168 0.000000
-7.213882 8.113237 0.000000
4.103309 -1.859483 0.000000
3.269989 -12.111427 0.000000
-0.563680 -13.505479 0.000000
6.847689 2.912745 0.000000
16.942980 6.210593 0.000000
9.370517 2.682800 0.000000
-5.214737 -6.805051 0.000000
4.365346 1.216321 0.000000
-7.406167 0.723009 0.000000
3.394393 -8.529152 0.000000
-8.072935 -6.780675 0.000000
-0.132596 3.344818 0.000000
4.078136 -2.669990 0.000000
-5.160348 -1.063200 0.000000
0.926851 7.847611 0.000000
-14.053293 0.315363 0.000000
0.400678 8.139798 0.000000
2.368235 -0.955735 0.000000
-3.935752 -8.253031 0.000000
-8.719813 -8.468090 0.000000
-0.665100 -3.559980 0.000000
12.342669 -9.588300 0.000000
3.886190 -8.616671 0.000000
2.519767 -7.741442 0.000000
6.307913 -2.907475 0.000000
7.980043 -1.105888 0.000000
7.335660 8.720398 0.000000
-8.320917 -11.990915 0.000000
4.315956 3.571989 0.000000
-0.293626 2.495539 0.000000
1.570523 12.573173 0.000000
-4.265803 -12.993170 0.000000
-4.668008 -5.477043 0.000000
-3.526862 -2.381337 0.000000
-9.791956 7.573113 0.000000
3.807523 5.732515 0.000000
1.987465 -2.229768 0.000000
-1.893677 4.250377 0.000000
-10.905109 2.728794 0.000000
-5.688843 7.519370 0.000000
-3.932826 8.253411 0.000000
-1.290686 -2.215576 0.000000
-6.821774 -14.169216 0.000000
5.493948 -5.649221 0.000000
-9.071486 5.014960 0.000000
-2.573394 -1.778758 0.000000
-6.645547 2.429804 0.000000
10.499743 -5.735410 0.000000
-12.718770 -3.951536 0.000000
2.337927 5.326244 0.000000
-4.200788 4.232416 0.000000
7.236106 1.057326 0.000000
0.182050 1.554524 0.000000
10.435215 -21.785537 0.000000
-7.751644 -2.334557 0.000000
-0.203475 10.966950 0.000000
-4.515320 3.508449 0.000000
-0.330368 5.894091 0.000000
-7.035321 -3.072993 0.000000
-1.623503 -7.802310 0.000000
-7.769482 1.786516 0.000000
-3.970597 -3.417419 0.000000
-8.447618 -1.873889 0.000000
-7.794203 6.440256 0.000000
5.320446 8.132116 0.000000
-11.565335 4.239811 0.000000
9.442949 1.338719 0.000000
8.067493 -8.410257 0.000000
0.805469 -12.379752 0.000000
1.706508 8.542112 0.000000
-0.956644 6.620492 0.000000
-7.878832 9.713456 0.000000
-10.087438 3.366079 0.000000
-4.277406 3.286909 0.000000
-8.400919 2.356709 0.000000
-6.799671 2.098252 0.000000
3.801220 12.583299 0.000000
-1.683853 -5.195493 0.000000
-1.858393 -10.202633 0.000000
-6.092846 15.867236 0.000000
0.534788 10.615123 0.000000
1.152764 -0.918061 0.000000
-0.531609 -11.868544 0.000000
14.611648 -16.915468 0.000000
4.327195 5.104284 0.000000
-12.226526 -1.975698 0.000000
-5.419652 -2.827444 0.000000
2.774897 3.482992 0.000000
-7.891794 2.368001 0.000000
9.298143 -1.591571 0.000000
2.161295 11.815609 0.000000
5.872650 14.092058 0.000000
4.007683 -10.214538 0.000000
-8.608803 -8.047858 0.000000
-2.061504 -8.238848 0.000000
-8.736602 3.549308 0.000000
-5.373140 -3.157049 0.000000