# vtk DataFile Version 4.0
hesp visualization file
ASCII
DATASET UNSTRUCTURED_GRID
POINTS 1250 double
31.743363 -4.842678 4.000000
31.044838 -2.910810 4.000000
33.674462 6.352542 4.000000
34.085417 8.195010 4.000000
27.502983 4.819675 4.000000
30.499662 13.575515 4.000000
28.465732 9.152736 4.000000
33.573054 8.206262 4.000000
35.532994 15.253292 4.000000
33.285090 13.253044 4.000000
33.879026 8.982289 4.000000
32.967100 15.488711 4.000000
33.567796 15.036093 4.000000
28.677264 18.401579 4.000000
30.613527 18.402456 4.000000
28.926417 15.292484 4.000000
30.166047 19.891656 4.000000
35.619146 17.001816 4.000000
28.541283 24.034679 4.000000
29.054522 17.621611 4.000000
37.314706 24.782956 4.000000
31.936518 33.808559 4.000000
34.925355 26.540908 4.000000
31.032469 35.335675 4.000000
31.043091 30.438363 4.000000
32.600520 -20.723608 4.000000
31.055172 1.410316 4.000000
36.077815 -9.718202 4.000000
31.983309 0.248298 4.000000
27.175683 11.077487 4.000000
30.930141 2.042856 4.000000
33.615502 6.978163 4.000000
32.044144 11.464536 4.000000
32.746458 11.201889 4.000000
31.166293 13.299205 4.000000
30.679178 13.277235 4.000000
27.571153 13.445458 4.000000
35.436551 15.866008 4.000000
32.786638 16.496358 4.000000
36.484628 13.452244 4.000000
31.174088 14.135467 4.000000
34.090481 19.509075 4.000000
31.939651 16.129849 4.000000
34.439997 22.063507 4.000000
31.445008 24.529922 4.000000
30.633937 26.409154 4.000000
32.858398 20.793606 4.000000
36.078752 38.867262 4.000000
31.300399 30.691919 4.000000
32.600520 49.907622 4.000000
31.817669 -9.201692 4.000000
33.271656 0.690813 4.000000
30.856030 0.078231 4.000000
27.995024 9.201103 4.000000
32.910950 -2.593277 4.000000
30.666823 9.787738 4.000000
29.798479 8.040483 4.000000
29.609629 6.961499 4.000000
31.199341 15.351273 4.000000
34.390275 11.193177 4.000000
32.079180 14.812675 4.000000
26.029415 15.505987 4.000000
37.614213 16.411540 4.000000
37.175415 14.071368 4.000000
32.695172 12.964237 4.000000
32.508980 13.975736 4.000000
29.869528 20.465298 4.000000
30.855722 21.741005 4.000000
28.959504 19.313748 4.000000
35.199521 14.035076 4.000000
29.647437 24.941656 4.000000
28.387751 20.558987 4.000000
31.667196 23.285224 4.000000
31.936281 32.472390 4.000000
31.699773 38.321825 4.000000
32.567472 -8.034187 4.000000
37.348842 -13.816263 4.000000
31.725758 4.286555 4.000000
38.203960 1.611034 4.000000
29.250294 0.908829 4.000000
33.171924 1.928824 4.000000
29.596764 8.923998 4.000000
29.288578 12.277822 4.000000
33.053842 7.473807 4.000000
33.963675 0.058105 4.000000
36.452240 15.122844 4.000000
33.378881 13.983444 4.000000
37.020309 8.381043 4.000000
30.945143 15.788860 4.000000
34.127153 16.426106 4.000000
29.706917 17.280780 4.000000
36.579683 19.659918 4.000000
32.679207 9.797007 4.000000
27.875047 22.879444 4.000000
30.120120 16.147444 4.000000
35.747085 29.719331 4.000000
37.449318 32.007107 4.000000
31.905296 25.979556 4.000000
37.348849 43.000276 4.000000
34.989091 35.648181 4.000000
29.641920 1.493228 4.000000
33.433262 -0.308231 4.000000
30.608314 -12.965111 4.000000
31.648731 1.024915 4.000000
32.032218 5.857397 4.000000
31.186867 11.587060 4.000000
34.451887 6.480691 4.000000
37.163447 12.051163 4.000000
36.095821 6.331261 4.000000
34.781580 7.932927 4.000000
32.009532 15.429898 4.000000
31.913601 7.457708 4.000000
37.720474 19.007196 4.000000
32.495807 15.845706 4.000000
26.590040 18.771435 4.000000
37.677041 11.784436 4.000000
30.852495 21.146970 4.000000
31.066409 21.529612 4.000000
32.748225 22.100939 4.000000
32.312495 21.504120 4.000000
32.287916 23.692231 4.000000
34.199435 24.800268 4.000000
34.592541 40.124749 4.000000
33.135006 29.756603 4.000000
30.762972 32.250698 4.000000
31.096066 -7.521334 4.000000
31.006735 -14.801951 4.000000
36.144389 5.923465 4.000000
27.029051 2.676023 4.000000
32.372460 6.577932 4.000000
31.868665 6.736151 4.000000
28.839523 8.380428 4.000000
33.404127 9.339860 4.000000
30.807693 12.244126 4.000000
33.753799 7.683595 4.000000
29.748948 11.758602 4.000000
33.837421 12.673095 4.000000
32.317761 11.859507 4.000000
35.796700 12.703440 4.000000
31.549701 10.433647 4.000000
33.657796 12.966780 4.000000
34.906971 18.044638 4.000000
32.326134 25.192745 4.000000
29.359057 18.156453 4.000000
27.721810 27.282756 4.000000
31.016343 17.345660 4.000000
28.997143 19.016501 4.000000
44.688789 18.980034 4.000000
30.536586 42.175138 4.000000
29.763808 37.443514 4.000000
30.326517 -3.777769 4.000000
36.837528 -9.777183 4.000000
33.159683 -5.588665 4.000000
33.154145 3.920900 4.000000
28.938238 9.549119 4.000000
34.979859 5.177476 4.000000
33.214250 8.906827 4.000000
37.249111 13.379714 4.000000
28.162321 1.844280 4.000000
31.522441 8.585761 4.000000
29.428776 9.678376 4.000000
37.299926 15.963999 4.000000
32.394095 13.686956 4.000000
26.129907 14.393022 4.000000
34.522386 26.204009 4.000000
33.959026 17.069647 4.000000
32.693707 25.878745 4.000000
33.815824 20.732521 4.000000
30.458214 22.635456 4.000000
31.814530 23.947239 4.000000
33.777604 33.277160 4.000000
34.286569 20.285908 4.000000
30.390422 29.453786 4.000000
30.614559 32.433171 4.000000
32.783109 33.554656 4.000000
42.582300 -14.312549 4.000000
31.155500 -6.615314 4.000000
35.406121 -1.775465 4.000000
30.812145 3.952260 4.000000
31.260982 6.489264 4.000000
34.743036 1.657467 4.000000
36.774564 8.636465 4.000000
35.245245 11.396837 4.000000
30.912295 10.867180 4.000000
33.018939 12.041469 4.000000
31.815911 12.551632 4.000000
32.388066 12.993323 4.000000
32.769111 17.472317 4.000000
35.584807 21.380909 4.000000
34.510315 16.856542 4.000000
35.009730 14.226204 4.000000
36.783683 18.540201 4.000000
34.744622 22.706360 4.000000
35.179686 22.221611 4.000000
28.628904 21.655692 4.000000
32.472708 17.197953 4.000000
34.063758 19.859908 4.000000
35.349606 32.106864 4.000000
31.350018 17.515770 4.000000
42.582300 43.496562 4.000000
29.622489 -0.793637 4.000000
36.293293 -0.117901 4.000000
36.846531 -11.194166 4.000000
38.266311 4.014600 4.000000
34.563481 8.442611 4.000000
35.602148 4.814405 4.000000
31.084943 13.712863 4.000000
34.534302 11.393963 4.000000
36.225316 7.951689 4.000000
32.938422 4.419632 4.000000
35.566470 5.982860 4.000000
38.055278 16.089958 4.000000
40.076016 14.992278 4.000000
35.672459 17.285525 4.000000
30.773183 20.216201 4.000000
35.976946 16.392974 4.000000
34.997244 17.613310 4.000000
37.590891 16.995439 4.000000
30.464938 16.676141 4.000000
31.174048 21.846209 4.000000
35.978051 19.354086 4.000000
32.620510 25.502121 4.000000
37.973522 35.495343 4.000000
25.465952 30.211612 4.000000
32.509246 34.538253 4.000000
32.704379 -0.747908 4.000000
30.738372 -9.816944 4.000000
31.612941 -1.799161 4.000000
35.926450 1.215383 4.000000
34.807638 8.678906 4.000000
32.532928 3.747202 4.000000
39.156441 8.083955 4.000000
38.567580 13.881623 4.000000
34.582748 15.508911 4.000000
37.629862 11.153334 4.000000
31.079742 9.538927 4.000000
37.733099 14.363346 4.000000
32.065444 13.233028 4.000000
36.716762 19.000810 4.000000
35.926245 18.746153 4.000000
38.446173 16.006823 4.000000
36.653352 18.307811 4.000000
30.995034 20.900672 4.000000
33.867778 24.132536 4.000000
34.796725 21.509748 4.000000
35.518939 24.409830 4.000000
29.884414 27.929463 4.000000
31.811628 32.754733 4.000000
30.740019 39.001352 4.000000
32.176732 27.572601 4.000000
32.286517 -3.402567 4.000000
36.421610 -3.580956 4.000000
32.345825 5.234414 4.000000
33.741879 0.475620 4.000000
33.958152 4.669811 4.000000
43.372290 6.580399 4.000000
29.311240 6.791237 4.000000
36.522364 12.850095 4.000000
32.516229 8.808822 4.000000
36.619487 16.891822 4.000000
35.920440 12.379364 4.000000
37.156034 4.439648 4.000000
36.322740 11.897064 4.000000
37.405994 14.651342 4.000000
36.197013 17.803823 4.000000
37.859402 14.645512 4.000000
33.046446 15.810530 4.000000
34.779231 15.020481 4.000000
30.357025 22.049783 4.000000
33.386564 25.262698 4.000000
34.947932 20.335818 4.000000
27.934706 32.504011 4.000000
36.456214 26.995625 4.000000
33.870046 27.612878 4.000000
32.869013 33.267200 4.000000
29.902225 -9.928798 4.000000
32.247562 -8.796993 4.000000
33.996722 12.985343 4.000000
34.987749 4.759086 4.000000
39.189670 11.541428 4.000000
31.518773 8.186368 4.000000
36.592896 8.173134 4.000000
31.162096 9.111410 4.000000
33.258587 11.502745 4.000000
36.818122 12.771112 4.000000
40.535167 11.741332 4.000000
39.031495 11.292673 4.000000
34.180013 22.368187 4.000000
35.075246 18.972778 4.000000
39.062134 19.636515 4.000000
35.016618 19.406821 4.000000
36.964883 19.117353 4.000000
39.927471 23.350187 4.000000
33.381576 20.929902 4.000000
35.542539 22.403832 4.000000
36.166138 29.632073 4.000000
29.866316 29.056155 4.000000
40.276952 19.482868 4.000000
34.205410 37.533487 4.000000
31.033952 37.145208 4.000000
29.543191 -3.623396 4.000000
32.554355 -7.557167 4.000000
37.411435 -0.180050 4.000000
36.858632 5.806764 4.000000
35.358321 4.278056 4.000000
36.058087 7.035787 4.000000
35.303283 4.835149 4.000000
29.720327 5.909302 4.000000
34.313280 12.281195 4.000000
38.738734 12.882953 4.000000
37.940380 8.068388 4.000000
36.750893 11.872084 4.000000
40.821904 19.224362 4.000000
40.666605 15.883156 4.000000
36.930925 23.396701 4.000000
35.255418 18.659269 4.000000
35.348453 19.384759 4.000000
34.479696 21.305948 4.000000
36.108748 21.727948 4.000000
36.267719 25.810301 4.000000
40.319815 21.225783 4.000000
32.497096 21.252176 4.000000
34.102931 39.175106 4.000000
29.013531 34.734064 4.000000
35.237952 37.336104 4.000000
32.857464 -3.364536 4.000000
34.337222 -4.422006 4.000000
30.744833 -6.065956 4.000000
35.048773 -0.591193 4.000000
33.510837 3.805621 4.000000
39.409849 2.854825 4.000000
38.147306 6.508717 4.000000
44.900715 7.819435 4.000000
34.374307 10.522468 4.000000
40.208668 10.292492 4.000000
31.975602 10.557382 4.000000
38.918314 16.569508 4.000000
34.538985 13.365432 4.000000
39.277779 17.241612 4.000000
41.467111 13.513995 4.000000
33.810164 21.967319 4.000000
36.261653 17.061883 4.000000
32.683193 19.843687 4.000000
[...]
POINT_DATA 1250
SCALARS m double
LOOKUP_TABLE default
1.000000
1.000000
1.000000
1.000000
1.000000
1.000000
1.000000
1.000000
1.000000
1.000000
1.000000
1.000000
1.000000
1.000000
1.000000
1.000000
1.000000
1.000000
1.000000
1.000000
1.000000
1.000000
1.000000
1.000000
1.000000
1.000000
1.000000
1.000000
1.000000
1.000000
1.000000
1.000000
1.000000
1.000000
1.000000
1.000000
1.000000
1.000000
1.000000
1.000000
1.000000
1.000000
1.000000
1.000000
1.000000
1.000000
1.000000
1.000000
1.000000
1.000000
1.000000
1.000000
1.000000
1.000000
1.000000
1.000000
1.000000
1.000000
1.000000
1.000000
1.000000
1.000000
1.000000
1.000000
1.000000
1.000000
1.000000
1.000000
1.000000
1.000000
1.000000
1.000000
1.000000
1.000000
1.000000
1.000000
1.000000
1.000000
1.000000
1.000000
1.000000
1.000000
1.000000
1.000000
1.000000
1.000000
1.000000
1.000000
1.000000
1.000000
1.000000
1.000000
1.000000
1.000000
1.000000
1.000000
1.000000
1.000000
1.000000
1.000000
1.000000
1.000000
1.000000
1.000000
1.000000
1.000000
1.000000
1.000000
1.000000
1.000000
1.000000
1.000000
1.000000
1.000000
1.000000
1.000000
1.000000
1.000000
1.000000
1.000000
1.000000
1.000000
1.000000
1.000000
1.000000
1.000000
1.000000
1.000000
1.000000
1.000000
1.000000
1.000000
1.000000
1.000000
1.000000
1.000000
1.000000
1.000000
1.000000
1.000000
1.000000
1.000000
1.000000
1.000000
1.000000
1.000000
1.000000
1.000000
1.000000
1.000000
1.000000
1.000000
1.000000
1.000000
1.000000
1.000000
1.000000
1.000000
1.000000
1.000000
1.000000
1.000000
1.000000
1.000000
1.000000
1.000000
1.000000
1.000000
1.000000
1.000000
1.000000
1.000000
1.000000
1.000000
1.000000
1.000000
1.000000
1.000000
1.000000
1.000000
1.000000
1.000000
1.000000
1.000000
1.000000
1.000000
1.000000
1.000000
1.000000
1.000000
1.000000
1.000000
1.000000
1.000000
1.000000
1.000000
1.000000
1.000000
1.000000
1.000000
1.000000
1.000000
1.000000
1.000000
1.000000
1.000000
1.000000
1.000000
1.000000
1.000000
1.000000
1.000000
1.000000
1.000000
1.000000
1.000000
1.000000
1.000000
1.000000
1.000000
1.000000
1.000000
1.000000
1.000000
1.000000
1.000000
1.000000
1.000000
1.000000
1.000000
1.000000
1.000000
1.000000
1.000000
1.000000
1.000000
1.000000
1.000000
1.000000
1.000000
1.000000
1.000000
1.000000
1.000000
1.000000
1.000000
1.000000
1.000000
1.000000
1.000000
1.000000
1.000000
1.000000
1.000000
1.000000
1.000000
1.000000
1.000000
1.000000
1.000000
1.000000
1.000000
1.000000
1.000000
1.000000
1.000000
1.000000
1.000000
1.000000
1.000000
1.000000
1.000000
1.000000
1.000000
1.000000
1.000000
1.000000
1.000000
1.000000
1.000000
1.000000
1.000000
1.000000
1.000000
1.000000
1.000000
1.000000
1.000000
1.000000
1.000000
1.000000
1.000000
1.000000
1.000000
1.000000
1.000000
1.000000
1.000000
1.000000
1.000000
1.000000
1.000000
1.000000
1.000000
1.000000
1.000000
1.000000
1.000000
1.000000
1.000000
1.000000
1.000000
1.000000
1.000000
1.000000
1.000000
1.000000
1.000000
1.000000
1.000000
1.000000
1.000000
1.000000
1.000000
1.000000
1.000000
1.000000
1.000000
1.000000
1.000000
1.000000
1.000000
1.000000
1.000000
1.000000
1.000000
1.000000
1.000000
1.000000
1.000000
1.000000
1.000000
1.000000
1.000000
1.000000
1.000000
1.000000
1.000000
1.000000
1.000000
1.000000
1.000000
1.000000
1.000000
1.000000
1.000000
1.000000
1.000000
1.000000
1.000000
1.000000
1.000000
1.000000
1.000000
1.000000
1.000000
1.000000
1.000000
1.000000
1.000000
1.000000
1.000000
1.000000
1.000000
1.000000
1.000000
1.000000
1.000000
1.000000
1.000000
1.000000
1.000000
1.000000
1.000000
1.000000
1.000000
1.000000
1.000000
1.000000
1.000000
1.000000
1.000000
1.000000
1.000000
1.000000
1.000000
1.000000
1.000000
1.000000
1.000000
1.000000
1.000000
1.000000
1.000000
1.000000
1.000000
1.000000
1.000000
1.000000
1.000000
1.000000
1.000000
1.000000
1.000000
1.000000
1.000000
1.000000
1.000000
1.000000
1.000000
1.000000
1.000000
1.000000
1.000000
1.000000
1.000000
1.000000
1.000000
1.000000
1.000000
1.000000
1.000000
1.000000
1.000000
1.000000
1.000000
1.000000
1.000000
1.000000
1.000000
1.000000
1.000000
1.000000
1.000000
1.000000
1.000000
1.000000
1.000000
1.000000
1.000000
1.000000
1.000000
1.000000
1.000000
1.000000
1.000000
1.000000
1.000000
1.000000
1.000000
1.000000
1.000000
1.000000
1.000000
1.000000
1.000000
1.000000
1.000000
1.000000
1.000000
1.000000
1.000000
1.000000
1.000000
1.000000
1.000000
1.000000
1.000000
1.000000
1.000000
1.000000
1.000000
1.000000
1.000000
1.000000
1.000000
1.000000
1.000000
1.000000
1.000000
1.000000
1.000000
1.000000
1.000000
1.000000
1.000000
1.000000
1.000000
1.000000
1.000000
1.000000
1.000000
1.000000
1.000000
1.000000
1.000000
1.000000
1.000000
1.000000
1.000000
1.000000
1.000000
1.000000
1.000000
1.000000
1.000000
1.000000
1.000000
1.000000
1.000000
1.000000
1.000000
1.000000
1.000000
1.000000
1.000000
1.000000
1.000000
1.000000
1.000000
1.000000
1.000000
1.000000
1.000000
1.000000
1.000000
1.000000
1.000000
1.000000
1.000000
1.000000
1.000000
1.000000
1.000000
1.000000
1.000000
1.000000
1.000000
1.000000
1.000000
1.000000
1.000000
1.000000
1.000000
1.000000
1.000000
1.000000
1.000000
1.000000
1.000000
1.000000
1.000000
1.000000
1.000000
1.000000
1.000000
1.000000
1.000000
1.000000
1.000000
1.000000
1.000000
1.000000
1.000000
1.000000
1.000000
1.000000
1.000000
1.000000
1.000000
1.000000
1.000000
1.000000
1.000000
1.000000
1.000000
1.000000
1.000000
1.000000
1.000000
1.000000
1.000000
1.000000
1.000000
1.000000
1.000000
1.000000
1.000000
1.000000
1.000000
1.000000
1.000000
1.000000
1.000000
1.000000
1.000000
1.000000
1.000000
1.000000
1.000000
1.000000
1.000000
1.000000
1.000000
1.000000
1.000000
1.000000
1.000000
1.000000
1.000000
1.000000
1.000000
1.000000
1.000000
1.000000
1.000000
1.000000
1.000000
1.000000
1.000000
1.000000
1.000000
1.000000
1.000000
1.000000
1.000000
1.000000
1.000000
1.000000
1.000000
1.000000
1.000000
1.000000
1.000000
1.000000
1.000000
1.000000
1.000000
1.000000
1.000000
1.000000
1.000000
1.000000
1.000000
1.000000
1.000000
1.000000
1.000000
1.000000
1.000000
1.000000
1.000000
1.000000
1.000000
1.000000
1.000000
1.000000
1.000000
1.000000
1.000000
1.000000
1.000000
1.000000
1.000000
1.000000
1.000000
1.000000
1.000000
1.000000
1.000000
1.000000
1.000000
1.000000
1.000000
1.000000
1.000000
1.000000
1.000000
1.000000
1.000000
1.000000
1.000000
1.000000
1.000000
1.000000
1.000000
1.000000
1.000000
1.000000
1.000000
1.000000
1.000000
1.000000
1.000000
1.000000
1.000000
1.000000
1.000000
1.000000
1.000000
1.000000
1.000000
1.000000
1.000000
1.000000
1.000000
1.000000
1.000000
1.000000
1.000000
1.000000
1.000000
1.000000
1.000000
1.000000
1.000000
1.000000
1.000000
1.000000
1.000000
1.000000
1.000000
1.000000
1.000000
1.000000
1.000000
1.000000
1.000000
1.000000
1.000000
1.000000
1.000000
1.000000
1.000000
1.000000
1.000000
1.000000
1.000000
1.000000
1.000000
1.000000
1.000000
1.000000
1.000000
1.000000
1.000000
1.000000
1.000000
1.000000
1.000000
1.000000
1.000000
1.000000
1.000000
1.000000
1.000000
1.000000
1.000000
1.000000
1.000000
1.000000
1.000000
1.000000
1.000000
1.000000
1.000000
1.000000
1.000000
1.000000
1.000000
1.000000
1.000000
1.000000
1.000000
1.000000
1.000000
1.000000
1.000000
1.000000
1.000000
1.000000
1.000000
1.000000
1.000000
1.000000
1.000000
1.000000
1.000000
1.000000
1.000000
1.000000
1.000000
1.000000
1.000000
1.000000
1.000000
1.000000
1.000000
1.000000
1.000000
1.000000
1.000000
1.000000
1.000000
1.000000
1.000000
1.000000
1.000000
1.000000
1.000000
1.000000
1.000000
1.000000
1.000000
1.000000
1.000000
1.000000
1.000000
1.000000
1.000000
1.000000
1.000000
1.000000
1.000000
1.000000
1.000000
1.000000
1.000000
1.000000
1.000000
1.000000
1.000000
1.000000
1.000000
1.000000
1.000000
1.000000
1.000000
1.000000
1.000000
1.000000
1.000000
1.000000
1.000000
1.000000
1.000000
1.000000
1.000000
1.000000
1.000000
1.000000
1.000000
1.000000
1.000000
1.000000
1.000000
1.000000
1.000000
1.000000
1.000000
1.000000
1.000000
1.000000
1.000000
1.000000
1.000000
1.000000
1.000000
1.000000
1.000000
1.000000
1.000000
1.000000
1.000000
1.000000
1.000000
1.000000
1.000000
1.000000
1.000000
1.000000
1.000000
1.000000
1.000000
1.000000
1.000000
1.000000
1.000000
1.000000
1.000000
1.000000
1.000000
1.000000
1.000000
1.000000
1.000000
1.000000
1.000000
1.000000
1.000000
1.000000
1.000000
1.000000
1.000000
1.000000
1.000000
1.000000
1.000000
1.000000
1.000000
1.000000
1.000000
1.000000
1.000000
1.000000
1.000000
1.000000
1.000000
1.000000
1.000000
1.000000
1.000000
1.000000
1.000000
1.000000
1.000000
1.000000
1.000000
1.000000
1.000000
1.000000
1.000000
1.000000
1.000000
1.000000
1.000000
1.000000
1.000000
1.000000
1.000000
1.000000
1.000000
1.000000
1.000000
1.000000
1.000000
1.000000
1.000000
1.000000
1.000000
1.000000
1.000000
1.000000
1.000000
1.000000
1.000000
1.000000
1.000000
1.000000
1.000000
1.000000
1.000000
1.000000
1.000000
1.000000
1.000000
1.000000
1.000000
1.000000
1.000000
1.000000
1.000000
1.000000
1.000000
1.000000
1.000000
1.000000
1.000000
1.000000
1.000000
1.000000
1.000000
1.000000
1.000000
1.000000
1.000000
1.000000
1.000000
1.000000
1.000000
1.000000
1.000000
1.000000
1.000000
1.000000
1.000000
1.000000
1.000000
1.000000
1.000000
1.000000
1.000000
1.000000
1.000000
1.000000
1.000000
1.000000
1.000000
1.000000
1.000000
1.000000
1.000000
1.000000
1.000000
1.000000
1.000000
1.000000
1.000000
1.000000
1.000000
1.000000
1.000000
1.000000
1.000000
1.000000
1.000000
1.000000
1.000000
1.000000
1.000000
1.000000
1.000000
1.000000
1.000000
1.000000
1.000000
1.000000
1.000000
1.000000
1.000000
1.000000
1.000000
1.000000
1.000000
1.000000
1.000000
1.000000
1.000000
1.000000
1.000000
1.000000
1.000000
1.000000
1.000000
1.000000
1.000000
1.000000
1.000000
1.000000
1.000000
1.000000
1.000000
1.000000
1.000000
1.000000
1.000000
1.000000
1.000000
1.000000
1.000000
1.000000
1.000000
1.000000
1.000000
1.000000
1.000000
1.000000
1.000000
1.000000
1.000000
1.000000
1.000000
1.000000
1.000000
1.000000
1.000000
1.000000
1.000000
1.000000
1.000000
1.000000
1.000000
1.000000
1.000000
1.000000
1.000000
1.000000
1.000000
1.000000
1.000000
1.000000
1.000000
1.000000
1.000000
1.000000
1.000000
1.000000
1.000000
1.000000
1.000000
1.000000
1.000000
1.000000
1.000000
1.000000
1.000000
1.000000
1.000000
1.000000
1.000000
1.000000
1.000000
1.000000
1.000000
1.000000
1.000000
1.000000
1.000000
1.000000
1.000000
1.000000
1.000000
1.000000
1.000000
1.000000
1.000000
1.000000
1.000000
1.000000
1.000000
1.000000
1.000000
1.000000
1.000000
1.000000
1.000000
1.000000
1.000000
1.000000
1.000000
1.000000
1.000000
1.000000
1.000000
1.000000
1.000000
1.000000
1.000000
1.000000
1.000000
1.000000
1.000000
1.000000
1.000000
1.000000
1.000000
1.000000
1.000000
1.000000
1.000000
1.000000
1.000000
1.000000
1.000000
1.000000
1.000000
1.000000
1.000000
1.000000
1.000000
1.000000
1.000000
1.000000
1.000000
1.000000
1.000000
1.000000
1.000000
1.000000
1.000000
1.000000
1.000000
1.000000
1.000000
1.000000
1.000000
1.000000
1.000000
1.000000
1.000000
1.000000
1.000000
1.000000
1.000000
1.000000
1.000000
1.000000
1.000000
1.000000
1.000000
1.000000
1.000000
1.000000
1.000000
1.000000
1.000000
1.000000
1.000000
1.000000
1.000000
1.000000
1.000000
1.000000
1.000000
1.000000
1.000000
1.000000
1.000000
1.000000
1.000000
1.000000
1.000000
1.000000
1.000000
1.000000
1.000000
1.000000
1.000000
1.000000
1.000000
VECTORS v double
-8.537250 -13.362668 0.000000
-1.900419 -7.590621 0.000000
0.140537 -1.086920 0.000000
0.081368 -3.152382 0.000000
-0.735173 1.243857 0.000000
-0.792331 4.705095 0.000000
-13.608623 1.540843 0.000000
-7.118220 -14.453426 0.000000
3.163382 3.376123 0.000000
-4.003674 2.869776 0.000000
1.302014 0.577718 0.000000
11.409926 -3.075192 0.000000
6.302059 -4.822288 0.000000
-7.410304 11.146526 0.000000
-2.276580 2.308254 0.000000
6.751872 -6.302869 0.000000
1.867921 3.377052 0.000000
2.119906 2.278934 0.000000
6.809031 7.389821 0.000000
-3.565060 -4.111593 0.000000
10.224360 6.387867 0.000000
7.146423 12.155892 0.000000
-3.791890 2.236240 0.000000
-2.612956 19.242959 0.000000
1.360199 3.653641 0.000000
2.630965 -13.726701 0.000000
-2.211520 0.202762 0.000000
5.367139 -9.594282 0.000000
0.193496 -7.487564 0.000000
9.638621 11.028569 0.000000
2.081785 -6.759851 0.000000
1.665303 -3.384510 0.000000
4.116934 -6.735237 0.000000
-11.584987 -6.603144 0.000000
14.400544 4.793339 0.000000
-5.205247 4.953430 0.000000
-7.475342 -7.439559 0.000000
-0.326869 -5.325701 0.000000
4.806700 3.304477 0.000000
3.133220 -12.930735 0.000000
2.994888 -3.995742 0.000000
4.839542 9.305350 0.000000
-1.029329 1.575183 0.000000
10.194513 9.611826 0.000000
-5.253563 10.882542 0.000000
-4.142230 6.953561 0.000000
1.406926 2.560010 0.000000
5.245273 9.446029 0.000000
-4.986030 0.639210 0.000000
2.630965 13.726701 0.000000
-0.075549 -9.560654 0.000000
-8.497366 -8.062334 0.000000
-5.439560 -8.387223 0.000000
-3.909216 5.701669 0.000000
-10.418403 -12.960766 0.000000
9.292255 -14.683058 0.000000
-7.727957 6.776191 0.000000
7.955155 6.480112 0.000000
4.393857 5.579976 0.000000
10.978399 8.401424 0.000000
9.983032 4.795358 0.000000
-0.169558 0.719881 0.000000
5.184032 3.418309 0.000000
2.384437 5.855607 0.000000
-7.113354 -1.754753 0.000000
1.183039 -9.002457 0.000000
-12.584493 -2.548779 0.000000
8.413328 13.056787 0.000000
0.110991 1.331460 0.000000
-12.161986 4.851392 0.000000
-5.842786 -3.273869 0.000000
-1.024178 -6.708777 0.000000
-4.210605 6.751618 0.000000
-4.228087 10.223913 0.000000
-0.279765 9.469217 0.000000
3.111141 -17.254351 0.000000
6.835050 -10.617898 0.000000
-0.781819 -1.404795 0.000000
-7.735541 -4.120299 0.000000
-4.446277 -4.064025 0.000000
4.786961 -1.940110 0.000000
7.602744 1.412476 0.000000
13.292328 -0.745584 0.000000
6.026371 2.435690 0.000000
9.560340 -1.994786 0.000000
1.404265 2.000099 0.000000
2.138196 -9.294813 0.000000
-0.402277 -10.771998 0.000000
8.205073 0.586250 0.000000
-2.001829 -8.237712 0.000000
-1.531253 -5.621338 0.000000
1.819504 9.120310 0.000000
8.038225 -10.137367 0.000000
-3.683292 -4.475797 0.000000
-4.813098 -2.295137 0.000000
-3.923677 10.774304 0.000000
4.000474 7.363944 0.000000
4.865934 -8.197607 0.000000
6.835055 10.617898 0.000000
8.753642 6.234743 0.000000
-0.872349 -0.512352 0.000000
-6.414978 -14.242933 0.000000
5.183215 -11.656672 0.000000
0.454070 -15.208558 0.000000
6.127221 -2.254895 0.000000
-1.760253 -4.834822 0.000000
2.117325 -6.388148 0.000000
-0.779234 4.020891 0.000000
-0.382845 -7.257122 0.000000
-11.879300 -8.398232 0.000000
-7.787873 -3.327418 0.000000
5.535396 -3.791086 0.000000
7.969655 -1.434363 0.000000
-0.813445 -1.923951 0.000000
5.427321 3.373052 0.000000
0.147950 -5.506250 0.000000
7.835843 5.838395 0.000000
-1.641710 17.218899 0.000000
-1.040682 -8.192979 0.000000
0.701094 0.200838 0.000000
5.690134 -2.087244 0.000000
-3.210953 8.750237 0.000000
-1.015170 18.015965 0.000000
-0.562851 7.231592 0.000000
-0.966278 16.038981 0.000000
4.705907 -4.567631 0.000000
-0.238982 -17.691400 0.000000
-11.989885 -0.375015 0.000000
-12.473364 -7.017011 0.000000
9.751818 -3.233601 0.000000
-2.069517 -0.738404 0.000000
3.227197 3.511620 0.000000
1.713856 -19.304494 0.000000
-2.858879 5.559458 0.000000
4.222636 -1.643945 0.000000
-2.611462 5.445232 0.000000
3.402624 -8.880090 0.000000
-0.074139 -7.941670 0.000000
3.799231 -4.766521 0.000000
-1.402893 -3.187538 0.000000
-7.405967 -0.162491 0.000000
-6.567631 -6.031239 0.000000
-8.693260 2.468831 0.000000
2.974504 8.390246 0.000000
-2.876723 7.063357 0.000000
6.351083 -10.207858 0.000000
0.390890 -11.465201 0.000000
10.564384 -8.986294 0.000000
-1.995875 10.927773 0.000000
-3.780642 9.267931 0.000000
-2.747897 -6.596023 0.000000
2.754984 -12.815822 0.000000
3.183108 -10.685632 0.000000
4.019237 1.808394 0.000000
6.585783 5.341372 0.000000
10.494588 5.158602 0.000000
-1.508881 3.952928 0.000000
-1.301143 -1.083869 0.000000
-1.455014 -18.209741 0.000000
1.057617 -0.904319 0.000000
-3.398122 8.723218 0.000000
6.819873 -1.339519 0.000000
-8.524016 -0.617751 0.000000
-18.872772 -9.018441 0.000000
-0.681376 7.985190 0.000000
-4.090607 8.374995 0.000000
1.064138 9.976050 0.000000
0.556572 -5.912228 0.000000
6.361790 8.435526 0.000000
0.673080 1.500578 0.000000
2.724519 15.423337 0.000000
-8.279153 3.090872 0.000000
-2.445127 4.212113 0.000000
0.535060 6.571922 0.000000
2.490498 7.283910 0.000000
4.837053 -9.997753 0.000000
-5.364573 -8.960648 0.000000
-5.188788 -6.134000 0.000000
-3.160113 -6.683829 0.000000
-1.770225 -9.884853 0.000000
7.159386 -8.024290 0.000000
5.518039 -2.622764 0.000000
-8.591033 4.357249 0.000000
1.165773 -5.074000 0.000000
-5.743797 -5.613011 0.000000
-6.496209 -4.620346 0.000000
-12.175033 0.696714 0.000000
-6.415580 -4.925397 0.000000
-4.385417 5.448662 0.000000
1.420559 0.009428 0.000000
-0.865206 -7.609400 0.000000
2.444610 2.508788 0.000000
2.902791 5.768018 0.000000
1.857913 11.622566 0.000000
4.829160 -6.484412 0.000000
0.895354 -11.432691 0.000000
6.769111 -2.038223 0.000000
-1.109840 5.721915 0.000000
-3.261096 0.894319 0.000000
4.837053 9.997753 0.000000
-9.905410 4.498242 0.000000
11.926972 -4.860683 0.000000
3.580983 -20.253935 0.000000
-1.540786 -2.669292 0.000000
11.238665 -0.594067 0.000000
0.443776 -3.281949 0.000000
12.968204 -4.539823 0.000000
-5.129828 0.676866 0.000000
-8.659137 0.646990 0.000000
-9.537718 -7.487025 0.000000
-0.019025 2.018363 0.000000
1.351982 0.675167 0.000000
2.757604 -2.219199 0.000000
5.952372 9.775827 0.000000
-2.698208 -0.917101 0.000000
7.927034 0.067130 0.000000
2.893243 0.902654 0.000000
6.741812 4.342733 0.000000
-2.057775 14.759743 0.000000
-0.605220 -0.056849 0.000000
3.936840 -2.498053 0.000000
-6.715909 1.790182 0.000000
0.929727 7.842023 0.000000
1.315073 7.181705 0.000000
-7.931803 8.721049 0.000000
-0.553081 -11.400846 0.000000
-3.938356 -8.246190 0.000000
-1.993340 -3.642645 0.000000
4.973271 -6.667659 0.000000
-10.773638 -3.360794 0.000000
-7.379847 9.088836 0.000000
4.502580 4.218380 0.000000
0.557893 6.427646 0.000000
7.232355 4.486220 0.000000
0.500511 -5.573745 0.000000
-4.613650 -9.298747 0.000000
5.850050 -1.991361 0.000000
2.075493 19.340472 0.000000
-8.493364 4.764561 0.000000
4.741702 6.205473 0.000000
1.399695 8.333400 0.000000
-14.156970 3.563359 0.000000
2.798137 4.653172 0.000000
7.586745 0.243350 0.000000
-14.224823 0.286270 0.000000
3.925046 -7.630893 0.000000
-3.640400 11.091907 0.000000
-2.304333 7.959284 0.000000
-3.931218 8.247827 0.000000
-0.851912 -2.112609 0.000000
2.020480 0.307703 0.000000
5.490352 -5.647979 0.000000
-10.651547 2.192823 0.000000
4.582851 -6.321031 0.000000
-2.916354 -4.037156 0.000000
10.415694 -5.897330 0.000000
-0.467936 -9.849314 0.000000
5.468604 5.040465 0.000000
-6.710973 -0.782787 0.000000
-15.638646 7.851836 0.000000
2.900135 -20.551940 0.000000
-7.896081 0.119487 0.000000
-7.446595 -16.686812 0.000000
3.624885 1.986585 0.000000
-6.374578 7.705151 0.000000
-1.015809 5.612887 0.000000
7.906235 -3.060685 0.000000
2.414008 2.874415 0.000000
0.407832 6.103248 0.000000
-8.142290 18.245538 0.000000
-0.349015 -5.808358 0.000000
-5.823838 9.403323 0.000000
-1.180439 -3.579597 0.000000
3.254938 10.100481 0.000000
7.782749 9.858908 0.000000
-4.027957 -15.920662 0.000000
-3.028970 -14.332409 0.000000
-6.454060 3.273643 0.000000
-5.208074 -10.233761 0.000000
12.351457 -3.193395 0.000000
-9.633613 -6.804314 0.000000
0.523853 -3.632908 0.000000
-6.396076 -4.485060 0.000000
-9.066072 -0.222852 0.000000
-0.019127 -4.014894 0.000000
17.511365 -5.473457 0.000000
11.418176 -7.899073 0.000000
-12.801626 0.645813 0.000000
-0.023707 7.615490 0.000000
6.410056 3.439545 0.000000
3.867748 16.430333 0.000000
-1.592903 -2.293710 0.000000
3.399712 6.659023 0.000000
-4.802164 1.039526 0.000000
0.607570 -5.369042 0.000000
-3.438422 5.981470 0.000000
-4.389409 4.292734 0.000000
-2.871478 2.650754 0.000000
2.177788 11.762021 0.000000
2.340485 8.330097 0.000000
-7.080684 -8.366884 0.000000
4.644483 -6.016785 0.000000
-11.747440 -6.113991 0.000000
-5.124111 -4.467722 0.000000
1.159608 1.613448 0.000000
-6.432160 -9.857654 0.000000