# vtk DataFile Version 4.0
hesp visualization file
ASCII
DATASET UNSTRUCTURED_GRID
POINTS 1250 double
32.340968 -3.907193 4.000000
31.177868 -2.379465 4.000000
33.664758 6.429395 4.000000
33.819645 8.138036 4.000000
27.932236 4.770267 4.000000
30.563975 13.238999 4.000000
29.431318 9.022066 4.000000
33.861242 8.896746 4.000000
34.950277 15.228445 4.000000
33.731990 13.086271 4.000000
33.766498 9.414789 4.000000
32.552788 15.739959 4.000000
33.122285 15.389688 4.000000
29.203260 17.686637 4.000000
30.773112 18.243042 4.000000
28.400908 15.432756 4.000000
30.035368 19.655910 4.000000
35.258489 16.549217 4.000000
28.074730 23.523841 4.000000
28.983917 17.355906 4.000000
36.602643 24.337020 4.000000
31.436351 32.957566 4.000000
35.192615 26.113863 4.000000
31.215409 33.988666 4.000000
30.954473 30.188130 4.000000
32.416352 -19.762739 4.000000
31.211826 1.396497 4.000000
35.702297 -9.046605 4.000000
31.969685 0.772455 4.000000
26.129335 11.171958 4.000000
30.784341 2.515668 4.000000
33.498536 7.215241 4.000000
31.504509 11.796352 4.000000
33.564922 11.665464 4.000000
31.226532 13.091445 4.000000
30.230799 12.784880 4.000000
27.800978 13.538184 4.000000
35.331767 16.082007 4.000000
32.448103 16.263103 4.000000
36.268004 14.355285 4.000000
30.963175 14.410659 4.000000
33.751345 18.862836 4.000000
32.037122 15.958998 4.000000
33.721967 21.398102 4.000000
31.633366 24.063956 4.000000
30.921725 25.921350 4.000000
32.811947 20.650876 4.000000
35.711203 38.205272 4.000000
31.440220 30.315921 4.000000
32.416352 48.946753 4.000000
31.823386 -8.532011 4.000000
33.825168 1.323371 4.000000
31.337733 0.483011 4.000000
28.280529 8.899260 4.000000
33.639729 -1.687495 4.000000
29.841741 10.331928 4.000000
30.385994 7.656034 4.000000
29.687509 6.595453 4.000000
30.891145 14.961903 4.000000
33.552777 10.507175 4.000000
31.402850 14.832629 4.000000
25.810042 15.696472 4.000000
37.261678 15.981617 4.000000
37.011746 13.659275 4.000000
33.335166 13.045558 4.000000
32.427448 14.605169 4.000000
30.571574 20.595541 4.000000
30.265403 21.035067 4.000000
29.195549 19.739220 4.000000
36.072908 13.673396 4.000000
30.055634 25.170975 4.000000
29.260783 20.094950 4.000000
31.961844 22.813529 4.000000
32.231895 31.756339 4.000000
31.719339 37.658987 4.000000
32.454196 -7.319053 4.000000
36.870389 -13.073010 4.000000
31.780515 4.384872 4.000000
38.335345 1.869544 4.000000
29.562027 1.195652 4.000000
32.835229 2.060255 4.000000
29.443111 8.641266 4.000000
29.050636 12.322860 4.000000
32.601320 7.373916 4.000000
33.979636 0.697260 4.000000
36.353692 14.982804 4.000000
33.229007 14.633989 4.000000
37.033180 9.138321 4.000000
30.962070 15.498421 4.000000
34.592449 16.424750 4.000000
29.781212 17.687885 4.000000
36.453150 19.019969 4.000000
32.116489 10.506581 4.000000
28.134495 23.191415 4.000000
30.312854 16.745235 4.000000
36.036412 28.966159 4.000000
37.174045 31.505653 4.000000
31.564109 26.552793 4.000000
36.870395 42.257023 4.000000
34.376339 35.211754 4.000000
30.213765 1.498840 4.000000
32.961016 0.182031 4.000000
30.245305 -12.149148 4.000000
31.614937 2.089357 4.000000
31.676126 6.137889 4.000000
31.309353 11.928782 4.000000
34.196913 6.886001 4.000000
37.207964 11.771752 4.000000
35.924989 6.861619 4.000000
35.375437 8.584618 4.000000
32.004276 15.531284 4.000000
31.525829 7.724448 4.000000
37.181321 19.060760 4.000000
32.544999 16.029819 4.000000
26.208657 18.535640 4.000000
37.662472 12.169016 4.000000
30.255611 20.626715 4.000000
31.245697 20.360568 4.000000
32.821145 22.673883 4.000000
32.266645 21.488675 4.000000
32.186195 23.773254 4.000000
34.423407 24.187574 4.000000
34.663588 38.863586 4.000000
33.168456 29.253703 4.000000
31.041140 31.033960 4.000000
30.766514 -7.201809 4.000000
31.023463 -13.563552 4.000000
36.983951 5.951758 4.000000
27.902593 3.167124 4.000000
32.163961 6.584658 4.000000
31.557817 6.994221 4.000000
28.631198 8.143302 4.000000
33.283639 10.689981 4.000000
31.007406 11.852528 4.000000
33.458443 7.799184 4.000000
29.932367 11.376768 4.000000
33.844886 12.629181 4.000000
32.318996 12.413873 4.000000
35.114240 13.592661 4.000000
31.650687 10.658482 4.000000
33.926283 13.642479 4.000000
35.277410 18.098274 4.000000
32.814947 25.111765 4.000000
29.470181 18.049757 4.000000
27.961626 26.763438 4.000000
30.570739 18.053056 4.000000
29.100236 19.021555 4.000000
43.949239 19.611925 4.000000
30.676282 41.410194 4.000000
30.027632 36.793896 4.000000
30.518266 -3.315863 4.000000
36.644498 -8.880088 4.000000
32.937883 -4.841921 4.000000
32.905576 3.720599 4.000000
28.474214 9.185914 4.000000
34.082424 5.365758 4.000000
33.350572 8.619554 4.000000
37.441911 13.700308 4.000000
28.264908 3.119086 4.000000
31.454126 8.641121 4.000000
29.697231 9.604596 4.000000
36.827556 16.061909 4.000000
32.988755 13.730401 4.000000
27.438624 15.033681 4.000000
34.570987 25.645879 4.000000
33.920767 17.041899 4.000000
32.549621 25.494826 4.000000
33.939001 21.166888 4.000000
30.018561 22.048829 4.000000
31.649696 23.610966 4.000000
33.586823 32.197541 4.000000
34.479937 19.609388 4.000000
30.560961 29.162162 4.000000
30.653510 32.004110 4.000000
32.600408 33.070263 4.000000
42.243707 -13.612706 4.000000
31.530219 -5.987215 4.000000
35.769863 -1.345658 4.000000
31.033418 4.420230 4.000000
31.367069 7.194857 4.000000
34.244693 2.216467 4.000000
36.398254 8.808814 4.000000
35.846230 11.091934 4.000000
30.828771 11.222040 4.000000
33.421294 12.434160 4.000000
31.884347 12.118989 4.000000
32.937210 12.951487 4.000000
33.211219 17.813457 4.000000
35.952098 20.955590 4.000000
34.410462 16.875473 4.000000
35.046965 14.782815 4.000000
36.624065 18.539689 4.000000
34.795652 22.735630 4.000000
35.054925 21.403808 4.000000
28.911561 21.583636 4.000000
32.416618 18.001796 4.000000
33.591725 19.999080 4.000000
35.427301 31.706324 4.000000
31.264839 17.505716 4.000000
42.243707 42.796719 4.000000
30.393029 -0.754462 4.000000
35.458614 0.221850 4.000000
36.595860 -9.776374 4.000000
38.373042 4.209138 4.000000
34.268107 8.610738 4.000000
35.571398 5.048338 4.000000
30.176293 14.027433 4.000000
34.963547 11.453638 4.000000
36.837297 7.921307 4.000000
33.605780 4.942643 4.000000
35.569576 5.844196 4.000000
37.965883 16.043506 4.000000
39.883017 15.147917 4.000000
35.319460 17.111062 4.000000
30.970972 20.232135 4.000000
35.698894 16.328400 4.000000
34.794923 17.552881 4.000000
37.164282 16.805806 4.000000
30.636963 16.109635 4.000000
31.231342 21.706101 4.000000
35.701041 19.523745 4.000000
33.205295 25.074369 4.000000
37.908710 34.946094 4.000000
25.373858 29.708992 4.000000
33.064081 33.928308 4.000000
32.742630 0.049880 4.000000
31.013930 -9.239691 4.000000
31.705994 -1.576299 4.000000
35.575981 1.681054 4.000000
34.967281 8.765428 4.000000
33.050316 3.120047 4.000000
38.840752 7.788669 4.000000
38.528455 13.431994 4.000000
34.077927 15.192570 4.000000
37.594659 11.543523 4.000000
31.540545 9.652973 4.000000
37.360005 14.344663 4.000000
32.385653 13.043339 4.000000
37.228044 18.727555 4.000000
35.655101 18.034651 4.000000
38.337247 15.423732 4.000000
37.434167 17.616550 4.000000
30.977887 20.514421 4.000000
33.338974 24.118362 4.000000
35.775612 21.588022 4.000000
35.218195 24.730060 4.000000
30.139294 27.153053 4.000000
31.973464 32.198109 4.000000
31.015217 38.423991 4.000000
32.236591 27.720555 4.000000
32.146323 -3.423779 4.000000
36.037276 -3.185576 4.000000
33.091626 5.080789 4.000000
33.446090 0.837421 4.000000
34.164801 4.952725 4.000000
42.643219 6.993313 4.000000
28.710972 7.393127 4.000000
35.886771 12.699661 4.000000
32.991847 8.866401 4.000000
37.662886 16.417083 4.000000
36.115503 13.180350 4.000000
37.566337 4.588786 4.000000
36.706583 12.843611 4.000000
37.057984 14.591625 4.000000
36.642485 17.261670 4.000000
37.987738 14.330179 4.000000
32.911365 16.046789 4.000000
34.611049 14.820233 4.000000
30.329427 21.624102 4.000000
33.949600 23.981705 4.000000
35.269848 20.723401 4.000000
28.342498 31.845756 4.000000
36.533563 27.243512 4.000000
33.643419 26.905170 4.000000
32.332369 32.551507 4.000000
30.184038 -8.814338 4.000000
32.459208 -7.793749 4.000000
34.441932 12.757970 4.000000
34.286069 4.593436 4.000000
38.489690 11.993592 4.000000
32.241343 8.823012 4.000000
36.545915 8.429628 4.000000
31.681965 9.107399 4.000000
33.885535 11.517692 4.000000
36.833225 13.066293 4.000000
39.308399 12.123735 4.000000
38.069359 11.617191 4.000000
34.823888 21.881999 4.000000
34.986509 18.442756 4.000000
38.728801 19.032896 4.000000
34.559110 18.484697 4.000000
37.243081 19.444699 4.000000
39.689493 22.884048 4.000000
33.713188 20.860708 4.000000
35.495118 22.782650 4.000000
36.392116 29.212311 4.000000
30.174502 28.756437 4.000000
40.481060 19.293845 4.000000
34.053740 36.710477 4.000000
30.870100 36.562110 4.000000
30.036258 -3.038260 4.000000
32.124665 -6.643731 4.000000
38.228597 0.247007 4.000000
37.215502 6.120562 4.000000
35.279964 4.163450 4.000000
36.509301 7.726754 4.000000
35.531450 5.604230 4.000000
30.733439 6.202931 4.000000
34.429421 12.264679 4.000000
39.176398 12.510932 4.000000
38.105120 8.375550 4.000000
36.799582 12.014412 4.000000
40.551155 18.842284 4.000000
39.265831 15.638315 4.000000
37.259625 23.087717 4.000000
35.478946 18.563411 4.000000
34.922278 18.965117 4.000000
34.915440 20.268615 4.000000
36.798817 20.290766 4.000000
36.687507 25.392009 4.000000
40.052714 21.298623 4.000000
33.352650 20.705653 4.000000
34.548610 37.991118 4.000000
29.257652 34.223855 4.000000
34.890503 36.212028 4.000000
32.899859 -2.932545 4.000000
34.209141 -3.474941 4.000000
31.135436 -5.646980 4.000000
35.308282 -0.202598 4.000000
34.036680 3.806388 4.000000
38.631929 4.005762 4.000000
38.350570 6.391033 4.000000
44.148337 7.951379 4.000000
34.534757 10.837851 4.000000
39.763007 11.336018 4.000000
32.077463 11.564361 4.000000
38.801860 16.451129 4.000000
35.066027 13.851108 4.000000
38.717923 16.808062 4.000000
41.550345 13.936456 4.000000
33.462608 21.876029 4.000000
36.396136 16.980785 4.000000
33.040665 19.298951 4.000000
32.875142 23.966651 4.000000
[...]
POINT_DATA 1250
SCALARS m double
LOOKUP_TABLE default
1.000000
1.000000
1.000000
1.000000
1.000000
1.000000
1.000000
1.000000
1.000000
1.000000
1.000000
1.000000
1.000000
1.000000
1.000000
1.000000
1.000000
1.000000
1.000000
1.000000
1.000000
1.000000
1.000000
1.000000
1.000000
1.000000
1.000000
1.000000
1.000000
1.000000
1.000000
1.000000
1.000000
1.000000
1.000000
1.000000
1.000000
1.000000
1.000000
1.000000
1.000000
1.000000
1.000000
1.000000
1.000000
1.000000
1.000000
1.000000
1.000000
1.000000
1.000000
1.000000
1.000000
1.000000
1.000000
1.000000
1.000000
1.000000
1.000000
1.000000
1.000000
1.000000
1.000000
1.000000
1.000000
1.000000
1.000000
1.000000
1.000000
1.000000
1.000000
1.000000
1.000000
1.000000
1.000000
1.000000
1.000000
1.000000
1.000000
1.000000
1.000000
1.000000
1.000000
1.000000
1.000000
1.000000
1.000000
1.000000
1.000000
1.000000
1.000000
1.000000
1.000000
1.000000
1.000000
1.000000
1.000000
1.000000
1.000000
1.000000
1.000000
1.000000
1.000000
1.000000
1.000000
1.000000
1.000000
1.000000
1.000000
1.000000
1.000000
1.000000
1.000000
1.000000
1.000000
1.000000
1.000000
1.000000
1.000000
1.000000
1.000000
1.000000
1.000000
1.000000
1.000000
1.000000
1.000000
1.000000
1.000000
1.000000
1.000000
1.000000
1.000000
1.000000
1.000000
1.000000
1.000000
1.000000
1.000000
1.000000
1.000000
1.000000
1.000000
1.000000
1.000000
1.000000
1.000000
1.000000
1.000000
1.000000
1.000000
1.000000
1.000000
1.000000
1.000000
1.000000
1.000000
1.000000
1.000000
1.000000
1.000000
1.000000
1.000000
1.000000
1.000000
1.000000
1.000000
1.000000
1.000000
1.000000
1.000000
1.000000
1.000000
1.000000
1.000000
1.000000
1.000000
1.000000
1.000000
1.000000
1.000000
1.000000
1.000000
1.000000
1.000000
1.000000
1.000000
1.000000
1.000000
1.000000
1.000000
1.000000
1.000000
1.000000
1.000000
1.000000
1.000000
1.000000
1.000000
1.000000
1.000000
1.000000
1.000000
1.000000
1.000000
1.000000
1.000000
1.000000
1.000000
1.000000
1.000000
1.000000
1.000000
1.000000
1.000000
1.000000
1.000000
1.000000
1.000000
1.000000
1.000000
1.000000
1.000000
1.000000
1.000000
1.000000
1.000000
1.000000
1.000000
1.000000
1.000000
1.000000
1.000000
1.000000
1.000000
1.000000
1.000000
1.000000
1.000000
1.000000
1.000000
1.000000
1.000000
1.000000
1.000000
1.000000
1.000000
1.000000
1.000000
1.000000
1.000000
1.000000
1.000000
1.000000
1.000000
1.000000
1.000000
1.000000
1.000000
1.000000
1.000000
1.000000
1.000000
1.000000
1.000000
1.000000
1.000000
1.000000
1.000000
1.000000
1.000000
1.000000
1.000000
1.000000
1.000000
1.000000
1.000000
1.000000
1.000000
1.000000
1.000000
1.000000
1.000000
1.000000
1.000000
1.000000
1.000000
1.000000
1.000000
1.000000
1.000000
1.000000
1.000000
1.000000
1.000000
1.000000
1.000000
1.000000
1.000000
1.000000
1.000000
1.000000
1.000000
1.000000
1.000000
1.000000
1.000000
1.000000
1.000000
1.000000
1.000000
1.000000
1.000000
1.000000
1.000000
1.000000
1.000000
1.000000
1.000000
1.000000
1.000000
1.000000
1.000000
1.000000
1.000000
1.000000
1.000000
1.000000
1.000000
1.000000
1.000000
1.000000
1.000000
1.000000
1.000000
1.000000
1.000000
1.000000
1.000000
1.000000
1.000000
1.000000
1.000000
1.000000
1.000000
1.000000
1.000000
1.000000
1.000000
1.000000
1.000000
1.000000
1.000000
1.000000
1.000000
1.000000
1.000000
1.000000
1.000000
1.000000
1.000000
1.000000
1.000000
1.000000
1.000000
1.000000
1.000000
1.000000
1.000000
1.000000
1.000000
1.000000
1.000000
1.000000
1.000000
1.000000
1.000000
1.000000
1.000000
1.000000
1.000000
1.000000
1.000000
1.000000
1.000000
1.000000
1.000000
1.000000
1.000000
1.000000
1.000000
1.000000
1.000000
1.000000
1.000000
1.000000
1.000000
1.000000
1.000000
1.000000
1.000000
1.000000
1.000000
1.000000
1.000000
1.000000
1.000000
1.000000
1.000000
1.000000
1.000000
1.000000
1.000000
1.000000
1.000000
1.000000
1.000000
1.000000
1.000000
1.000000
1.000000
1.000000
1.000000
1.000000
1.000000
1.000000
1.000000
1.000000
1.000000
1.000000
1.000000
1.000000
1.000000
1.000000
1.000000
1.000000
1.000000
1.000000
1.000000
1.000000
1.000000
1.000000
1.000000
1.000000
1.000000
1.000000
1.000000
1.000000
1.000000
1.000000
1.000000
1.000000
1.000000
1.000000
1.000000
1.000000
1.000000
1.000000
1.000000
1.000000
1.000000
1.000000
1.000000
1.000000
1.000000
1.000000
1.000000
1.000000
1.000000
1.000000
1.000000
1.000000
1.000000
1.000000
1.000000
1.000000
1.000000
1.000000
1.000000
1.000000
1.000000
1.000000
1.000000
1.000000
1.000000
1.000000
1.000000
1.000000
1.000000
1.000000
1.000000
1.000000
1.000000
1.000000
1.000000
1.000000
1.000000
1.000000
1.000000
1.000000
1.000000
1.000000
1.000000
1.000000
1.000000
1.000000
1.000000
1.000000
1.000000
1.000000
1.000000
1.000000
1.000000
1.000000
1.000000
1.000000
1.000000
1.000000
1.000000
1.000000
1.000000
1.000000
1.000000
1.000000
1.000000
1.000000
1.000000
1.000000
1.000000
1.000000
1.000000
1.000000
1.000000
1.000000
1.000000
1.000000
1.000000
1.000000
1.000000
1.000000
1.000000
1.000000
1.000000
1.000000
1.000000
1.000000
1.000000
1.000000
1.000000
1.000000
1.000000
1.000000
1.000000
1.000000
1.000000
1.000000
1.000000
1.000000
1.000000
1.000000
1.000000
1.000000
1.000000
1.000000
1.000000
1.000000
1.000000
1.000000
1.000000
1.000000
1.000000
1.000000
1.000000
1.000000
1.000000
1.000000
1.000000
1.000000
1.000000
1.000000
1.000000
1.000000
1.000000
1.000000
1.000000
1.000000
1.000000
1.000000
1.000000
1.000000
1.000000
1.000000
1.000000
1.000000
1.000000
1.000000
1.000000
1.000000
1.000000
1.000000
1.000000
1.000000
1.000000
1.000000
1.000000
1.000000
1.000000
1.000000
1.000000
1.000000
1.000000
1.000000
1.000000
1.000000
1.000000
1.000000
1.000000
1.000000
1.000000
1.000000
1.000000
1.000000
1.000000
1.000000
1.000000
1.000000
1.000000
1.000000
1.000000
1.000000
1.000000
1.000000
1.000000
1.000000
1.000000
1.000000
1.000000
1.000000
1.000000
1.000000
1.000000
1.000000
1.000000
1.000000
1.000000
1.000000
1.000000
1.000000
1.000000
1.000000
1.000000
1.000000
1.000000
1.000000
1.000000
1.000000
1.000000
1.000000
1.000000
1.000000
1.000000
1.000000
1.000000
1.000000
1.000000
1.000000
1.000000
1.000000
1.000000
1.000000
1.000000
1.000000
1.000000
1.000000
1.000000
1.000000
1.000000
1.000000
1.000000
1.000000
1.000000
1.000000
1.000000
1.000000
1.000000
1.000000
1.000000
1.000000
1.000000
1.000000
1.000000
1.000000
1.000000
1.000000
1.000000
1.000000
1.000000
1.000000
1.000000
1.000000
1.000000
1.000000
1.000000
1.000000
1.000000
1.000000
1.000000
1.000000
1.000000
1.000000
1.000000
1.000000
1.000000
1.000000
1.000000
1.000000
1.000000
1.000000
1.000000
1.000000
1.000000
1.000000
1.000000
1.000000
1.000000
1.000000
1.000000
1.000000
1.000000
1.000000
1.000000
1.000000
1.000000
1.000000
1.000000
1.000000
1.000000
1.000000
1.000000
1.000000
1.000000
1.000000
1.000000
1.000000
1.000000
1.000000
1.000000
1.000000
1.000000
1.000000
1.000000
1.000000
1.000000
1.000000
1.000000
1.000000
1.000000
1.000000
1.000000
1.000000
1.000000
1.000000
1.000000
1.000000
1.000000
1.000000
1.000000
1.000000
1.000000
1.000000
1.000000
1.000000
1.000000
1.000000
1.000000
1.000000
1.000000
1.000000
1.000000
1.000000
1.000000
1.000000
1.000000
1.000000
1.000000
1.000000
1.000000
1.000000
1.000000
1.000000
1.000000
1.000000
1.000000
1.000000
1.000000
1.000000
1.000000
1.000000
1.000000
1.000000
1.000000
1.000000
1.000000
1.000000
1.000000
1.000000
1.000000
1.000000
1.000000
1.000000
1.000000
1.000000
1.000000
1.000000
1.000000
1.000000
1.000000
1.000000
1.000000
1.000000
1.000000
1.000000
1.000000
1.000000
1.000000
1.000000
1.000000
1.000000
1.000000
1.000000
1.000000
1.000000
1.000000
1.000000
1.000000
1.000000
1.000000
1.000000
1.000000
1.000000
1.000000
1.000000
1.000000
1.000000
1.000000
1.000000
1.000000
1.000000
1.000000
1.000000
1.000000
1.000000
1.000000
1.000000
1.000000
1.000000
1.000000
1.000000
1.000000
1.000000
1.000000
1.000000
1.000000
1.000000
1.000000
1.000000
1.000000
1.000000
1.000000
1.000000
1.000000
1.000000
1.000000
1.000000
1.000000
1.000000
1.000000
1.000000
1.000000
1.000000
1.000000
1.000000
1.000000
1.000000
1.000000
1.000000
1.000000
1.000000
1.000000
1.000000
1.000000
1.000000
1.000000
1.000000
1.000000
1.000000
1.000000
1.000000
1.000000
1.000000
1.000000
1.000000
1.000000
1.000000
1.000000
1.000000
1.000000
1.000000
1.000000
1.000000
1.000000
1.000000
1.000000
1.000000
1.000000
1.000000
1.000000
1.000000
1.000000
1.000000
1.000000
1.000000
1.000000
1.000000
1.000000
1.000000
1.000000
1.000000
1.000000
1.000000
1.000000
1.000000
1.000000
1.000000
1.000000
1.000000
1.000000
1.000000
1.000000
1.000000
1.000000
1.000000
1.000000
1.000000
1.000000
1.000000
1.000000
1.000000
1.000000
1.000000
1.000000
1.000000
1.000000
1.000000
1.000000
1.000000
1.000000
1.000000
1.000000
1.000000
1.000000
1.000000
1.000000
1.000000
1.000000
1.000000
1.000000
1.000000
1.000000
1.000000
1.000000
1.000000
1.000000
1.000000
1.000000
1.000000
1.000000
1.000000
1.000000
1.000000
1.000000
1.000000
1.000000
1.000000
1.000000
1.000000
1.000000
1.000000
1.000000
1.000000
1.000000
1.000000
1.000000
1.000000
1.000000
1.000000
1.000000
1.000000
1.000000
1.000000
1.000000
1.000000
1.000000
1.000000
1.000000
1.000000
1.000000
1.000000
1.000000
1.000000
1.000000
1.000000
1.000000
1.000000
1.000000
1.000000
1.000000
1.000000
1.000000
1.000000
1.000000
1.000000
1.000000
1.000000
1.000000
1.000000
1.000000
1.000000
1.000000
1.000000
1.000000
1.000000
1.000000
1.000000
1.000000
1.000000
1.000000
1.000000
1.000000
1.000000
1.000000
1.000000
1.000000
1.000000
1.000000
1.000000
1.000000
1.000000
1.000000
1.000000
1.000000
1.000000
1.000000
1.000000
1.000000
1.000000
1.000000
1.000000
1.000000
1.000000
1.000000
1.000000
1.000000
1.000000
1.000000
1.000000
1.000000
1.000000
1.000000
1.000000
1.000000
1.000000
1.000000
1.000000
1.000000
1.000000
1.000000
1.000000
1.000000
1.000000
1.000000
1.000000
1.000000
1.000000
1.000000
1.000000
1.000000
1.000000
1.000000
1.000000
1.000000
1.000000
1.000000
1.000000
1.000000
1.000000
1.000000
1.000000
1.000000
1.000000
1.000000
1.000000
1.000000
1.000000
1.000000
1.000000
1.000000
1.000000
1.000000
1.000000
1.000000
1.000000
1.000000
1.000000
1.000000
1.000000
1.000000
1.000000
1.000000
1.000000
1.000000
1.000000
1.000000
1.000000
1.000000
1.000000
1.000000
1.000000
1.000000
1.000000
1.000000
1.000000
1.000000
1.000000
1.000000
1.000000
1.000000
1.000000
1.000000
1.000000
1.000000
1.000000
1.000000
1.000000
1.000000
1.000000
1.000000
1.000000
1.000000
1.000000
1.000000
1.000000
1.000000
1.000000
1.000000
1.000000
1.000000
1.000000
1.000000
1.000000
1.000000
1.000000
1.000000
1.000000
1.000000
1.000000
1.000000
1.000000
1.000000
1.000000
1.000000
1.000000
1.000000
1.000000
1.000000
1.000000
1.000000
1.000000
1.000000
1.000000
1.000000
1.000000
1.000000
1.000000
1.000000
1.000000
1.000000
1.000000
1.000000
1.000000
1.000000
1.000000
1.000000
1.000000
1.000000
1.000000
1.000000
1.000000
1.000000
1.000000
1.000000
1.000000
1.000000
1.000000
1.000000
1.000000
1.000000
1.000000
1.000000
1.000000
1.000000
1.000000
1.000000
1.000000
1.000000
1.000000
1.000000
1.000000
1.000000
1.000000
1.000000
1.000000
1.000000
1.000000
1.000000
1.000000
1.000000
1.000000
1.000000
1.000000
1.000000
1.000000
1.000000
1.000000
1.000000
1.000000
1.000000
1.000000
1.000000
1.000000
1.000000
1.000000
1.000000
1.000000
1.000000
1.000000
1.000000
1.000000
1.000000
1.000000
VECTORS v double
-8.534890 -13.374861 0.000000
-1.900534 -7.590828 0.000000
0.135529 -1.105939 0.000000
6.422823 3.674462 0.000000
-6.594171 0.703905 0.000000
-0.928679 4.863056 0.000000
-14.044605 2.102180 0.000000
4.662220 -8.167792 0.000000
12.356793 -1.891848 0.000000
-12.804716 0.955804 0.000000
1.986967 -13.899371 0.000000
11.484103 -2.122934 0.000000
6.127353 -4.699948 0.000000
-7.734095 7.509720 0.000000
-3.167070 1.178624 0.000000
5.453658 -0.408880 0.000000
1.866933 3.363705 0.000000
9.459323 1.092294 0.000000
6.575928 7.296839 0.000000
4.165405 11.168769 0.000000
10.140266 6.373136 0.000000
7.144554 12.158451 0.000000
-3.840781 11.717165 0.000000
-2.614577 19.242905 0.000000
1.202559 3.540109 0.000000
2.630965 -13.726701 0.000000
-2.255819 0.188479 0.000000
5.362941 -9.594301 0.000000
0.197399 -7.487164 0.000000
17.082592 -6.500299 0.000000
2.083313 -6.751853 0.000000
1.678653 -3.397935 0.000000
20.196029 -0.862772 0.000000
-11.898978 -6.606568 0.000000
-4.827419 2.486796 0.000000
-5.435243 9.473520 0.000000
3.049005 5.880734 0.000000
7.645972 4.278990 0.000000
5.869167 0.569904 0.000000
3.089257 -12.883605 0.000000
2.984147 -3.925361 0.000000
4.844931 9.222223 0.000000
8.116578 0.899902 0.000000
10.329925 9.481180 0.000000
1.313243 0.099285 0.000000
-4.099016 6.969831 0.000000
-0.446777 1.326812 0.000000
5.253924 9.471137 0.000000
-0.351889 7.938737 0.000000
2.630965 13.726701 0.000000
-0.083444 -9.568894 0.000000
-2.595230 -7.892709 0.000000
-6.913156 -5.723207 0.000000
-4.282947 2.845861 0.000000
-10.408998 -12.935598 0.000000
14.387973 -1.073288 0.000000
-14.841182 -6.030497 0.000000
-2.414467 5.086382 0.000000
4.393853 5.559698 0.000000
11.875217 9.875060 0.000000
9.279746 -6.703450 0.000000
3.891263 -4.751273 0.000000
5.000913 12.280396 0.000000
2.202657 5.944799 0.000000
-3.513559 0.303304 0.000000
1.162813 -8.970312 0.000000
3.172011 -1.180651 0.000000
8.489036 4.960267 0.000000
-19.764994 5.022384 0.000000
-12.506078 5.202756 0.000000
-5.783192 -3.257959 0.000000
-15.219875 11.975997 0.000000
-4.207907 6.732324 0.000000
-4.160408 10.111327 0.000000
-0.279209 9.468912 0.000000
0.888294 -6.810619 0.000000
6.835050 -10.617898 0.000000
-0.780038 -1.404368 0.000000
3.779646 -3.286214 0.000000
-4.461971 -4.111789 0.000000
4.880467 -1.747681 0.000000
-0.951500 8.855908 0.000000
-4.525432 0.947507 0.000000
7.952985 -1.843933 0.000000
-2.986107 -13.052964 0.000000
1.413018 2.001344 0.000000
2.144250 -9.294270 0.000000
-0.071804 -10.853394 0.000000
-7.658630 16.158440 0.000000
-9.567059 5.623525 0.000000
-0.289593 -6.084042 0.000000
1.791534 9.164412 0.000000
8.052778 -10.141675 0.000000
-3.712753 -4.519023 0.000000
-2.599552 -9.033860 0.000000
-4.329079 10.693897 0.000000
3.916562 7.001547 0.000000
4.877755 -8.184350 0.000000
6.835055 10.617898 0.000000
8.753465 6.234473 0.000000
-9.765576 0.016809 0.000000
11.145995 -4.656260 0.000000
5.203027 -11.656338 0.000000
0.505085 -15.198171 0.000000
-0.669478 -13.806455 0.000000
0.581007 -6.689511 0.000000
6.231278 -4.789872 0.000000
-0.571046 3.940649 0.000000
11.807180 -8.859604 0.000000
7.778594 -13.740804 0.000000
10.224021 0.920493 0.000000
5.540352 -3.812425 0.000000
6.867189 1.244657 0.000000
-0.260051 -5.368633 0.000000
5.366627 3.266876 0.000000
0.262493 -5.465368 0.000000
10.140268 10.840758 0.000000
-4.338550 15.912370 0.000000
-1.041632 -8.182869 0.000000
0.619087 0.227063 0.000000
-6.893101 0.596314 0.000000
-3.170433 8.759758 0.000000
-1.014775 18.017674 0.000000
-0.407605 7.109831 0.000000
3.668435 10.699392 0.000000
4.714707 -4.554420 0.000000
-0.238960 -17.691431 0.000000
-11.399658 -0.007984 0.000000
-12.535393 -7.002021 0.000000
-0.904779 1.717571 0.000000
4.695511 -2.735915 0.000000
2.604282 3.130648 0.000000
1.797640 -19.336553 0.000000
-2.395544 5.655820 0.000000
4.202542 -1.655360 0.000000
-2.664054 5.504159 0.000000
-0.676095 2.111631 0.000000
0.053670 -7.909799 0.000000
6.280888 -2.036117 0.000000
-1.460947 -3.212675 0.000000
-3.217448 -11.136518 0.000000
-1.187225 14.060993 0.000000
-3.025558 -1.549637 0.000000
-5.189799 -1.698997 0.000000
-4.033690 7.854523 0.000000
7.297142 -8.913146 0.000000
-1.663787 1.053389 0.000000
10.579037 -9.012533 0.000000
-1.995516 10.927773 0.000000
-3.756156 9.290695 0.000000
-2.722580 -6.606309 0.000000
2.759117 -12.815018 0.000000
3.165316 -10.664316 0.000000
2.527993 5.337532 0.000000
6.658447 5.139044 0.000000
13.573654 -5.048569 0.000000
-1.905043 4.056877 0.000000
-1.787293 -7.381681 0.000000
-1.492477 -18.211986 0.000000
0.900779 -0.787465 0.000000
-4.651350 -4.922970 0.000000
6.613988 -1.450536 0.000000
-8.493981 -0.635943 0.000000
-15.261391 -9.237700 0.000000
-0.698513 7.969079 0.000000
3.557375 -4.809466 0.000000
2.378790 4.135185 0.000000
-3.812335 -6.450361 0.000000
6.236732 8.391350 0.000000
6.700597 9.612300 0.000000
2.725913 15.423004 0.000000
13.570337 16.856140 0.000000
-2.412233 4.145662 0.000000
-7.571523 11.673974 0.000000
2.641029 6.989799 0.000000
4.837053 -9.997753 0.000000
-5.330746 -8.994415 0.000000
-5.202567 -6.138215 0.000000
-3.163533 -6.685931 0.000000
2.109556 -12.854377 0.000000
7.116456 -7.980018 0.000000
5.179002 -2.398876 0.000000
-8.583258 4.354998 0.000000
1.222530 -5.038418 0.000000
-5.770467 -5.629165 0.000000
-1.645721 -6.095320 0.000000
-7.150598 0.571603 0.000000
-6.284773 -4.865479 0.000000
-8.557770 8.642768 0.000000
1.330642 -0.671107 0.000000
-0.442593 -8.030589 0.000000
3.226496 1.459954 0.000000
-3.259734 -4.801275 0.000000
1.702950 11.750773 0.000000
-5.010307 1.872179 0.000000
0.773818 -11.489867 0.000000
6.738679 -1.983577 0.000000
-1.110080 5.722178 0.000000
4.570196 -0.420199 0.000000
4.837053 9.997753 0.000000
-3.426036 -2.380414 0.000000
11.937559 -4.819290 0.000000
3.581070 -20.254760 0.000000
-1.518889 -2.723881 0.000000
-7.509267 0.784055 0.000000
0.478950 -3.469256 0.000000
12.984188 -4.460883 0.000000
-6.113266 -0.920371 0.000000
-8.673528 0.349776 0.000000
-9.529037 -7.476263 0.000000
-0.625274 -1.301366 0.000000
1.271467 0.662732 0.000000
2.759112 -2.229850 0.000000
4.961638 1.768148 0.000000
-3.970860 9.328529 0.000000
-6.398744 -0.347449 0.000000
2.883944 0.859968 0.000000
5.276216 0.526641 0.000000
-2.238525 -4.926921 0.000000
-1.234486 4.858444 0.000000
3.960386 -2.407573 0.000000
-10.255029 6.850307 0.000000
0.924622 7.847700 0.000000
1.316022 7.178366 0.000000
-7.927405 8.712871 0.000000
0.581651 -10.715853 0.000000
-3.935213 -8.247051 0.000000
1.392759 -1.275202 0.000000
5.120695 -6.558825 0.000000
10.293523 1.916812 0.000000
-7.405141 8.897212 0.000000
4.520167 4.226480 0.000000
0.566517 6.421402 0.000000
7.194916 4.537676 0.000000
0.519934 -5.598303 0.000000
-5.988445 -4.370008 0.000000
3.458182 2.013461 0.000000
-7.391257 -4.318132 0.000000
-8.212753 2.216590 0.000000
3.898927 10.647546 0.000000
1.672964 8.413240 0.000000
-6.718228 14.308344 0.000000
-11.766631 -2.080337 0.000000
7.474930 0.136139 0.000000
-13.522967 -4.293113 0.000000
4.515025 -2.873988 0.000000
-3.642221 11.093778 0.000000
-2.386919 8.057600 0.000000
-3.931648 8.248281 0.000000
-0.856153 -2.113900 0.000000
1.994627 0.311186 0.000000
5.490544 -5.648500 0.000000
-10.670443 2.202471 0.000000
3.931295 -4.333835 0.000000
-3.066096 -4.046104 0.000000
10.414594 -5.900560 0.000000
9.867874 -8.460991 0.000000
13.180287 -1.144793 0.000000
-6.887410 -0.810031 0.000000
-14.021674 2.848265 0.000000
8.368562 2.066125 0.000000
-2.022455 -6.443117 0.000000
-3.451349 -4.715070 0.000000
6.908601 -0.747369 0.000000
-6.299196 7.870697 0.000000
-1.895048 4.373781 0.000000
-10.059370 -4.675663 0.000000
2.311359 2.873482 0.000000
0.405150 6.049391 0.000000
-7.973124 18.361475 0.000000
-8.537986 -5.344996 0.000000
-5.826601 9.403807 0.000000
-1.061842 -3.556813 0.000000
3.241950 10.099134 0.000000
7.648490 10.165262 0.000000
-4.026374 -15.920518 0.000000
-3.022774 -14.355758 0.000000
-6.258192 3.294121 0.000000
11.045140 5.186078 0.000000
9.717386 -6.860542 0.000000
-10.411263 -9.509863 0.000000
0.717878 -3.733923 0.000000
-8.167850 3.361108 0.000000
-8.758448 -0.238011 0.000000
-3.542297 -9.776413 0.000000
17.513584 -5.459931 0.000000
14.040803 -4.235954 0.000000
-6.690438 11.355531 0.000000
5.014524 4.275931 0.000000
6.930281 9.243181 0.000000
8.014499 11.178824 0.000000
-3.224946 -6.728861 0.000000
3.399671 6.659288 0.000000
-13.316408 -0.482730 0.000000
0.727788 -5.497798 0.000000
-3.031933 6.063315 0.000000
-4.421174 4.265418 0.000000
-2.965879 2.800534 0.000000
2.163869 11.756690 0.000000
2.341414 8.329737 0.000000
-7.024539 -8.309012 0.000000
6.870028 -16.429083 0.000000
-11.655778 -6.100177 0.000000
-5.686817 -4.886592 0.000000
1.008910 1.691683 0.000000
-6.521784 -9.941870 0.000000