# vtk DataFile Version 4.0
hesp visualization file
ASCII
DATASET UNSTRUCTURED_GRID
POINTS 1250 double
30.340820 1.122624 4.000000
30.340818 2.244926 4.000000
30.340818 3.367386 4.000000
30.340818 4.489848 4.000000
30.340818 5.612310 4.000000
30.340818 6.734772 4.000000
30.340818 7.857234 4.000000
30.340818 8.979696 4.000000
30.340818 10.102158 4.000000
30.340818 11.224620 4.000000
30.340818 12.347083 4.000000
30.340818 13.469545 4.000000
30.340818 14.592007 4.000000
30.340818 15.714469 4.000000
30.340818 16.836931 4.000000
30.340818 17.959393 4.000000
30.340818 19.081855 4.000000
30.340818 20.204317 4.000000
30.340818 21.326779 4.000000
30.340818 22.449241 4.000000
30.340818 23.571703 4.000000
30.340818 24.694165 4.000000
30.340818 25.816627 4.000000
30.340818 26.939088 4.000000
30.340820 28.061389 4.000000
30.985645 1.122579 4.000000
30.985644 2.244925 4.000000
30.985644 3.367386 4.000000
30.985644 4.489848 4.000000
30.985644 5.612310 4.000000
30.985644 6.734772 4.000000
30.985644 7.857234 4.000000
30.985644 8.979696 4.000000
30.985644 10.102158 4.000000
30.985644 11.224620 4.000000
30.985644 12.347083 4.000000
30.985644 13.469545 4.000000
30.985644 14.592007 4.000000
30.985644 15.714469 4.000000
30.985644 16.836931 4.000000
30.985644 17.959393 4.000000
30.985644 19.081855 4.000000
30.985644 20.204317 4.000000
30.985644 21.326779 4.000000
30.985644 22.449241 4.000000
30.985644 23.571703 4.000000
30.985644 24.694165 4.000000
30.985644 25.816627 4.000000
30.985644 26.939089 4.000000
30.985645 28.061434 4.000000
31.667379 1.122590 4.000000
31.667379 2.244925 4.000000
31.667379 3.367386 4.000000
31.667379 4.489848 4.000000
31.667379 5.612310 4.000000
31.667379 6.734772 4.000000
31.667379 7.857234 4.000000
31.667379 8.979696 4.000000
31.667379 10.102158 4.000000
31.667379 11.224620 4.000000
31.667379 12.347083 4.000000
31.667379 13.469545 4.000000
31.667379 14.592007 4.000000
31.667379 15.714469 4.000000
31.667379 16.836931 4.000000
31.667379 17.959393 4.000000
31.667379 19.081855 4.000000
31.667379 20.204317 4.000000
31.667379 21.326779 4.000000
31.667379 22.449241 4.000000
31.667379 23.571703 4.000000
31.667379 24.694165 4.000000
31.667379 25.816627 4.000000
31.667379 26.939088 4.000000
31.667379 28.061423 4.000000
32.789848 1.122590 4.000000
32.789848 2.244925 4.000000
32.789848 3.367386 4.000000
32.789848 4.489848 4.000000
32.789848 5.612310 4.000000
32.789848 6.734772 4.000000
32.789848 7.857234 4.000000
32.789848 8.979696 4.000000
32.789848 10.102158 4.000000
32.789848 11.224620 4.000000
32.789848 12.347083 4.000000
32.789848 13.469545 4.000000
32.789848 14.592007 4.000000
32.789848 15.714469 4.000000
32.789848 16.836931 4.000000
32.789848 17.959393 4.000000
32.789848 19.081855 4.000000
32.789848 20.204317 4.000000
32.789848 21.326779 4.000000
32.789848 22.449241 4.000000
32.789848 23.571703 4.000000
32.789848 24.694165 4.000000
32.789848 25.816627 4.000000
32.789848 26.939088 4.000000
32.789848 28.061424 4.000000
33.912310 1.122590 4.000000
33.912310 2.244925 4.000000
33.912310 3.367386 4.000000
33.912310 4.489848 4.000000
33.912310 5.612310 4.000000
33.912310 6.734772 4.000000
33.912310 7.857234 4.000000
33.912310 8.979696 4.000000
33.912310 10.102158 4.000000
33.912310 11.224620 4.000000
33.912310 12.347083 4.000000
33.912310 13.469545 4.000000
33.912310 14.592007 4.000000
33.912310 15.714469 4.000000
33.912310 16.836931 4.000000
33.912310 17.959393 4.000000
33.912310 19.081855 4.000000
33.912310 20.204317 4.000000
33.912310 21.326779 4.000000
33.912310 22.449241 4.000000
33.912310 23.571703 4.000000
33.912310 24.694165 4.000000
33.912310 25.816627 4.000000
33.912310 26.939088 4.000000
33.912310 28.061424 4.000000
35.034772 1.122590 4.000000
35.034772 2.244925 4.000000
35.034772 3.367386 4.000000
35.034772 4.489848 4.000000
35.034772 5.612310 4.000000
35.034772 6.734772 4.000000
35.034772 7.857234 4.000000
35.034772 8.979696 4.000000
35.034772 10.102158 4.000000
35.034772 11.224620 4.000000
35.034772 12.347083 4.000000
35.034772 13.469545 4.000000
35.034772 14.592007 4.000000
35.034772 15.714469 4.000000
35.034772 16.836931 4.000000
35.034772 17.959393 4.000000
35.034772 19.081855 4.000000
35.034772 20.204317 4.000000
35.034772 21.326779 4.000000
35.034772 22.449241 4.000000
35.034772 23.571703 4.000000
35.034772 24.694165 4.000000
35.034772 25.816627 4.000000
35.034772 26.939088 4.000000
35.034772 28.061424 4.000000
36.157234 1.122590 4.000000
36.157234 2.244925 4.000000
36.157234 3.367386 4.000000
36.157234 4.489848 4.000000
36.157234 5.612310 4.000000
36.157234 6.734772 4.000000
36.157234 7.857234 4.000000
36.157234 8.979696 4.000000
36.157234 10.102158 4.000000
36.157234 11.224620 4.000000
36.157234 12.347083 4.000000
36.157234 13.469545 4.000000
36.157234 14.592007 4.000000
36.157234 15.714469 4.000000
36.157234 16.836931 4.000000
36.157234 17.959393 4.000000
36.157234 19.081855 4.000000
36.157234 20.204317 4.000000
36.157234 21.326779 4.000000
36.157234 22.449241 4.000000
36.157234 23.571703 4.000000
36.157234 24.694165 4.000000
36.157234 25.816627 4.000000
36.157234 26.939088 4.000000
36.157234 28.061424 4.000000
37.279696 1.122590 4.000000
37.279696 2.244925 4.000000
37.279696 3.367386 4.000000
37.279696 4.489848 4.000000
37.279696 5.612310 4.000000
37.279696 6.734772 4.000000
37.279696 7.857234 4.000000
37.279696 8.979696 4.000000
37.279696 10.102158 4.000000
37.279696 11.224620 4.000000
37.279696 12.347083 4.000000
37.279696 13.469545 4.000000
37.279696 14.592007 4.000000
37.279696 15.714469 4.000000
37.279696 16.836931 4.000000
37.279696 17.959393 4.000000
37.279696 19.081855 4.000000
37.279696 20.204317 4.000000
37.279696 21.326779 4.000000
37.279696 22.449241 4.000000
37.279696 23.571703 4.000000
37.279696 24.694165 4.000000
37.279696 25.816627 4.000000
37.279696 26.939088 4.000000
37.279696 28.061424 4.000000
38.402158 1.122590 4.000000
38.402158 2.244925 4.000000
38.402158 3.367386 4.000000
38.402158 4.489848 4.000000
38.402158 5.612310 4.000000
38.402158 6.734772 4.000000
38.402158 7.857234 4.000000
38.402158 8.979696 4.000000
38.402158 10.102158 4.000000
38.402158 11.224620 4.000000
38.402158 12.347083 4.000000
38.402158 13.469545 4.000000
38.402158 14.592007 4.000000
38.402158 15.714469 4.000000
38.402158 16.836931 4.000000
38.402158 17.959393 4.000000
38.402158 19.081855 4.000000
38.402158 20.204317 4.000000
38.402158 21.326779 4.000000
38.402158 22.449241 4.000000
38.402158 23.571703 4.000000
38.402158 24.694165 4.000000
38.402158 25.816627 4.000000
38.402158 26.939088 4.000000
38.402158 28.061424 4.000000
39.524620 1.122590 4.000000
39.524620 2.244925 4.000000
39.524620 3.367386 4.000000
39.524620 4.489848 4.000000
39.524620 5.612310 4.000000
39.524620 6.734772 4.000000
39.524620 7.857234 4.000000
39.524620 8.979696 4.000000
39.524620 10.102158 4.000000
39.524620 11.224620 4.000000
39.524620 12.347083 4.000000
39.524620 13.469545 4.000000
39.524620 14.592007 4.000000
39.524620 15.714469 4.000000
39.524620 16.836931 4.000000
39.524620 17.959393 4.000000
39.524620 19.081855 4.000000
39.524620 20.204317 4.000000
39.524620 21.326779 4.000000
39.524620 22.449241 4.000000
39.524620 23.571703 4.000000
39.524620 24.694165 4.000000
39.524620 25.816627 4.000000
39.524620 26.939088 4.000000
39.524620 28.061424 4.000000
40.647083 1.122590 4.000000
40.647083 2.244925 4.000000
40.647083 3.367386 4.000000
40.647083 4.489848 4.000000
40.647083 5.612310 4.000000
40.647083 6.734772 4.000000
40.647083 7.857234 4.000000
40.647083 8.979696 4.000000
40.647083 10.102158 4.000000
40.647083 11.224620 4.000000
40.647083 12.347083 4.000000
40.647083 13.469545 4.000000
40.647083 14.592007 4.000000
40.647083 15.714469 4.000000
40.647083 16.836931 4.000000
40.647083 17.959393 4.000000
40.647083 19.081855 4.000000
40.647083 20.204317 4.000000
40.647083 21.326779 4.000000
40.647083 22.449241 4.000000
40.647083 23.571703 4.000000
40.647083 24.694165 4.000000
40.647083 25.816627 4.000000
40.647083 26.939088 4.000000
40.647083 28.061424 4.000000
41.769545 1.122590 4.000000
41.769545 2.244925 4.000000
41.769545 3.367386 4.000000
41.769545 4.489848 4.000000
41.769545 5.612310 4.000000
41.769545 6.734772 4.000000
41.769545 7.857234 4.000000
41.769545 8.979696 4.000000
41.769545 10.102158 4.000000
41.769545 11.224620 4.000000
41.769545 12.347083 4.000000
41.769545 13.469545 4.000000
41.769545 14.592007 4.000000
41.769545 15.714469 4.000000
41.769545 16.836931 4.000000
41.769545 17.959393 4.000000
41.769545 19.081855 4.000000
41.769545 20.204317 4.000000
41.769545 21.326779 4.000000
41.769545 22.449241 4.000000
41.769545 23.571703 4.000000
41.769545 24.694165 4.000000
41.769545 25.816627 4.000000
41.769545 26.939088 4.000000
41.769545 28.061424 4.000000
42.892007 1.122590 4.000000
42.892007 2.244925 4.000000
42.892007 3.367386 4.000000
42.892007 4.489848 4.000000
42.892007 5.612310 4.000000
42.892007 6.734772 4.000000
42.892007 7.857234 4.000000
42.892007 8.979696 4.000000
42.892007 10.102158 4.000000
42.892007 11.224620 4.000000
42.892007 12.347083 4.000000
42.892007 13.469545 4.000000
42.892007 14.592007 4.000000
42.892007 15.714469 4.000000
42.892007 16.836931 4.000000
42.892007 17.959393 4.000000
42.892007 19.081855 4.000000
42.892007 20.204317 4.000000
42.892007 21.326779 4.000000
42.892007 22.449241 4.000000
42.892007 23.571703 4.000000
42.892007 24.694165 4.000000
42.892007 25.816627 4.000000
42.892007 26.939088 4.000000
42.892007 28.061424 4.000000
44.014469 1.122590 4.000000
44.014469 2.244925 4.000000
44.014469 3.367386 4.000000
44.014469 4.489848 4.000000
44.014469 5.612310 4.000000
44.014469 6.734772 4.000000
44.014469 7.857234 4.000000
44.014469 8.979696 4.000000
44.014469 10.102158 4.000000
44.014469 11.224620 4.000000
44.014469 12.347083 4.000000
44.014469 13.469545 4.000000
44.014469 14.592007 4.000000
44.014469 15.714469 4.000000
44.014469 16.836931 4.000000
44.014469 17.959393 4.000000
44.014469 19.081855 4.000000
44.014469 20.204317 4.000000
44.014469 21.326779 4.000000
44.014469 22.449241 4.000000
[...]
POINT_DATA 1250
SCALARS m double
LOOKUP_TABLE default
1.000000
1.000000
1.000000
1.000000
1.000000
1.000000
1.000000
1.000000
1.000000
1.000000
1.000000
1.000000
1.000000
1.000000
1.000000
1.000000
1.000000
1.000000
1.000000
1.000000
1.000000
1.000000
1.000000
1.000000
1.000000
1.000000
1.000000
1.000000
1.000000
1.000000
1.000000
1.000000
1.000000
1.000000
1.000000
1.000000
1.000000
1.000000
1.000000
1.000000
1.000000
1.000000
1.000000
1.000000
1.000000
1.000000
1.000000
1.000000
1.000000
1.000000
1.000000
1.000000
1.000000
1.000000
1.000000
1.000000
1.000000
1.000000
1.000000
1.000000
1.000000
1.000000
1.000000
1.000000
1.000000
1.000000
1.000000
1.000000
1.000000
1.000000
1.000000
1.000000
1.000000
1.000000
1.000000
1.000000
1.000000
1.000000
1.000000
1.000000
1.000000
1.000000
1.000000
1.000000
1.000000
1.000000
1.000000
1.000000
1.000000
1.000000
1.000000
1.000000
1.000000
1.000000
1.000000
1.000000
1.000000
1.000000
1.000000
1.000000
1.000000
1.000000
1.000000
1.000000
1.000000
1.000000
1.000000
1.000000
1.000000
1.000000
1.000000
1.000000
1.000000
1.000000
1.000000
1.000000
1.000000
1.000000
1.000000
1.000000
1.000000
1.000000
1.000000
1.000000
1.000000
1.000000
1.000000
1.000000
1.000000
1.000000
1.000000
1.000000
1.000000
1.000000
1.000000
1.000000
1.000000
1.000000
1.000000
1.000000
1.000000
1.000000
1.000000
1.000000
1.000000
1.000000
1.000000
1.000000
1.000000
1.000000
1.000000
1.000000
1.000000
1.000000
1.000000
1.000000
1.000000
1.000000
1.000000
1.000000
1.000000
1.000000
1.000000
1.000000
1.000000
1.000000
1.000000
1.000000
1.000000
1.000000
1.000000
1.000000
1.000000
1.000000
1.000000
1.000000
1.000000
1.000000
1.000000
1.000000
1.000000
1.000000
1.000000
1.000000
1.000000
1.000000
1.000000
1.000000
1.000000
1.000000
1.000000
1.000000
1.000000
1.000000
1.000000
1.000000
1.000000
1.000000
1.000000
1.000000
1.000000
1.000000
1.000000
1.000000
1.000000
1.000000
1.000000
1.000000
1.000000
1.000000
1.000000
1.000000
1.000000
1.000000
1.000000
1.000000
1.000000
1.000000
1.000000
1.000000
1.000000
1.000000
1.000000
1.000000
1.000000
1.000000
1.000000
1.000000
1.000000
1.000000
1.000000
1.000000
1.000000
1.000000
1.000000
1.000000
1.000000
1.000000
1.000000
1.000000
1.000000
1.000000
1.000000
1.000000
1.000000
1.000000
1.000000
1.000000
1.000000
1.000000
1.000000
1.000000
1.000000
1.000000
1.000000
1.000000
1.000000
1.000000
1.000000
1.000000
1.000000
1.000000
1.000000
1.000000
1.000000
1.000000
1.000000
1.000000
1.000000
1.000000
1.000000
1.000000
1.000000
1.000000
1.000000
1.000000
1.000000
1.000000
1.000000
1.000000
1.000000
1.000000
1.000000
1.000000
1.000000
1.000000
1.000000
1.000000
1.000000
1.000000
1.000000
1.000000
1.000000
1.000000
1.000000
1.000000
1.000000
1.000000
1.000000
1.000000
1.000000
1.000000
1.000000
1.000000
1.000000
1.000000
1.000000
1.000000
1.000000
1.000000
1.000000
1.000000
1.000000
1.000000
1.000000
1.000000
1.000000
1.000000
1.000000
1.000000
1.000000
1.000000
1.000000
1.000000
1.000000
1.000000
1.000000
1.000000
1.000000
1.000000
1.000000
1.000000
1.000000
1.000000
1.000000
1.000000
1.000000
1.000000
1.000000
1.000000
1.000000
1.000000
1.000000
1.000000
1.000000
1.000000
1.000000
1.000000
1.000000
1.000000
1.000000
1.000000
1.000000
1.000000
1.000000
1.000000
1.000000
1.000000
1.000000
1.000000
1.000000
1.000000
1.000000
1.000000
1.000000
1.000000
1.000000
1.000000
1.000000
1.000000
1.000000
1.000000
1.000000
1.000000
1.000000
1.000000
1.000000
1.000000
1.000000
1.000000
1.000000
1.000000
1.000000
1.000000
1.000000
1.000000
1.000000
1.000000
1.000000
1.000000
1.000000
1.000000
1.000000
1.000000
1.000000
1.000000
1.000000
1.000000
1.000000
1.000000
1.000000
1.000000
1.000000
1.000000
1.000000
1.000000
1.000000
1.000000
1.000000
1.000000
1.000000
1.000000
1.000000
1.000000
1.000000
1.000000
1.000000
1.000000
1.000000
1.000000
1.000000
1.000000
1.000000
1.000000
1.000000
1.000000
1.000000
1.000000
1.000000
1.000000
1.000000
1.000000
1.000000
1.000000
1.000000
1.000000
1.000000
1.000000
1.000000
1.000000
1.000000
1.000000
1.000000
1.000000
1.000000
1.000000
1.000000
1.000000
1.000000
1.000000
1.000000
1.000000
1.000000
1.000000
1.000000
1.000000
1.000000
1.000000
1.000000
1.000000
1.000000
1.000000
1.000000
1.000000
1.000000
1.000000
1.000000
1.000000
1.000000
1.000000
1.000000
1.000000
1.000000
1.000000
1.000000
1.000000
1.000000
1.000000
1.000000
1.000000
1.000000
1.000000
1.000000
1.000000
1.000000
1.000000
1.000000
1.000000
1.000000
1.000000
1.000000
1.000000
1.000000
1.000000
1.000000
1.000000
1.000000
1.000000
1.000000
1.000000
1.000000
1.000000
1.000000
1.000000
1.000000
1.000000
1.000000
1.000000
1.000000
1.000000
1.000000
1.000000
1.000000
1.000000
1.000000
1.000000
1.000000
1.000000
1.000000
1.000000
1.000000
1.000000
1.000000
1.000000
1.000000
1.000000
1.000000
1.000000
1.000000
1.000000
1.000000
1.000000
1.000000
1.000000
1.000000
1.000000
1.000000
1.000000
1.000000
1.000000
1.000000
1.000000
1.000000
1.000000
1.000000
1.000000
1.000000
1.000000
1.000000
1.000000
1.000000
1.000000
1.000000
1.000000
1.000000
1.000000
1.000000
1.000000
1.000000
1.000000
1.000000
1.000000
1.000000
1.000000
1.000000
1.000000
1.000000
1.000000
1.000000
1.000000
1.000000
1.000000
1.000000
1.000000
1.000000
1.000000
1.000000
1.000000
1.000000
1.000000
1.000000
1.000000
1.000000
1.000000
1.000000
1.000000
1.000000
1.000000
1.000000
1.000000
1.000000
1.000000
1.000000
1.000000
1.000000
1.000000
1.000000
1.000000
1.000000
1.000000
1.000000
1.000000
1.000000
1.000000
1.000000
1.000000
1.000000
1.000000
1.000000
1.000000
1.000000
1.000000
1.000000
1.000000
1.000000
1.000000
1.000000
1.000000
1.000000
1.000000
1.000000
1.000000
1.000000
1.000000
1.000000
1.000000
1.000000
1.000000
1.000000
1.000000
1.000000
1.000000
1.000000
1.000000
1.000000
1.000000
1.000000
1.000000
1.000000
1.000000
1.000000
1.000000
1.000000
1.000000
1.000000
1.000000
1.000000
1.000000
1.000000
1.000000
1.000000
1.000000
1.000000
1.000000
1.000000
1.000000
1.000000
1.000000
1.000000
1.000000
1.000000
1.000000
1.000000
1.000000
1.000000
1.000000
1.000000
1.000000
1.000000
1.000000
1.000000
1.000000
1.000000
1.000000
1.000000
1.000000
1.000000
1.000000
1.000000
1.000000
1.000000
1.000000
1.000000
1.000000
1.000000
1.000000
1.000000
1.000000
1.000000
1.000000
1.000000
1.000000
1.000000
1.000000
1.000000
1.000000
1.000000
1.000000
1.000000
1.000000
1.000000
1.000000
1.000000
1.000000
1.000000
1.000000
1.000000
1.000000
1.000000
1.000000
1.000000
1.000000
1.000000
1.000000
1.000000
1.000000
1.000000
1.000000
1.000000
1.000000
1.000000
1.000000
1.000000
1.000000
1.000000
1.000000
1.000000
1.000000
1.000000
1.000000
1.000000
1.000000
1.000000
1.000000
1.000000
1.000000
1.000000
1.000000
1.000000
1.000000
1.000000
1.000000
1.000000
1.000000
1.000000
1.000000
1.000000
1.000000
1.000000
1.000000
1.000000
1.000000
1.000000
1.000000
1.000000
1.000000
1.000000
1.000000
1.000000
1.000000
1.000000
1.000000
1.000000
1.000000
1.000000
1.000000
1.000000
1.000000
1.000000
1.000000
1.000000
1.000000
1.000000
1.000000
1.000000
1.000000
1.000000
1.000000
1.000000
1.000000
1.000000
1.000000
1.000000
1.000000
1.000000
1.000000
1.000000
1.000000
1.000000
1.000000
1.000000
1.000000
1.000000
1.000000
1.000000
1.000000
1.000000
1.000000
1.000000
1.000000
1.000000
1.000000
1.000000
1.000000
1.000000
1.000000
1.000000
1.000000
1.000000
1.000000
1.000000
1.000000
1.000000
1.000000
1.000000
1.000000
1.000000
1.000000
1.000000
1.000000
1.000000
1.000000
1.000000
1.000000
1.000000
1.000000
1.000000
1.000000
1.000000
1.000000
1.000000
1.000000
1.000000
1.000000
1.000000
1.000000
1.000000
1.000000
1.000000
1.000000
1.000000
1.000000
1.000000
1.000000
1.000000
1.000000
1.000000
1.000000
1.000000
1.000000
1.000000
1.000000
1.000000
1.000000
1.000000
1.000000
1.000000
1.000000
1.000000
1.000000
1.000000
1.000000
1.000000
1.000000
1.000000
1.000000
1.000000
1.000000
1.000000
1.000000
1.000000
1.000000
1.000000
1.000000
1.000000
1.000000
1.000000
1.000000
1.000000
1.000000
1.000000
1.000000
1.000000
1.000000
1.000000
1.000000
1.000000
1.000000
1.000000
1.000000
1.000000
1.000000
1.000000
1.000000
1.000000
1.000000
1.000000
1.000000
1.000000
1.000000
1.000000
1.000000
1.000000
1.000000
1.000000
1.000000
1.000000
1.000000
1.000000
1.000000
1.000000
1.000000
1.000000
1.000000
1.000000
1.000000
1.000000
1.000000
1.000000
1.000000
1.000000
1.000000
1.000000
1.000000
1.000000
1.000000
1.000000
1.000000
1.000000
1.000000
1.000000
1.000000
1.000000
1.000000
1.000000
1.000000
1.000000
1.000000
1.000000
1.000000
1.000000
1.000000
1.000000
1.000000
1.000000
1.000000
1.000000
1.000000
1.000000
1.000000
1.000000
1.000000
1.000000
1.000000
1.000000
1.000000
1.000000
1.000000
1.000000
1.000000
1.000000
1.000000
1.000000
1.000000
1.000000
1.000000
1.000000
1.000000
1.000000
1.000000
1.000000
1.000000
1.000000
1.000000
1.000000
1.000000
1.000000
1.000000
1.000000
1.000000
1.000000
1.000000
1.000000
1.000000
1.000000
1.000000
1.000000
1.000000
1.000000
1.000000
1.000000
1.000000
1.000000
1.000000
1.000000
1.000000
1.000000
1.000000
1.000000
1.000000
1.000000
1.000000
1.000000
1.000000
1.000000
1.000000
1.000000
1.000000
1.000000
1.000000
1.000000
1.000000
1.000000
1.000000
1.000000
1.000000
1.000000
1.000000
1.000000
1.000000
1.000000
1.000000
1.000000
1.000000
1.000000
1.000000
1.000000
1.000000
1.000000
1.000000
1.000000
1.000000
1.000000
1.000000
1.000000
1.000000
1.000000
1.000000
1.000000
1.000000
1.000000
1.000000
1.000000
1.000000
1.000000
1.000000
1.000000
1.000000
1.000000
1.000000
1.000000
1.000000
1.000000
1.000000
1.000000
1.000000
1.000000
1.000000
1.000000
1.000000
1.000000
1.000000
1.000000
1.000000
1.000000
1.000000
1.000000
1.000000
1.000000
1.000000
1.000000
1.000000
1.000000
1.000000
1.000000
1.000000
1.000000
1.000000
1.000000
1.000000
1.000000
1.000000
1.000000
1.000000
1.000000
1.000000
1.000000
1.000000
1.000000
1.000000
1.000000
1.000000
1.000000
1.000000
1.000000
1.000000
1.000000
1.000000
1.000000
1.000000
1.000000
1.000000
1.000000
1.000000
1.000000
1.000000
1.000000
1.000000
1.000000
1.000000
1.000000
1.000000
1.000000
1.000000
1.000000
1.000000
1.000000
1.000000
1.000000
1.000000
1.000000
1.000000
1.000000
1.000000
1.000000
1.000000
1.000000
1.000000
1.000000
1.000000
1.000000
1.000000
1.000000
1.000000
1.000000
1.000000
1.000000
1.000000
1.000000
1.000000
1.000000
1.000000
1.000000
1.000000
1.000000
1.000000
1.000000
1.000000
1.000000
1.000000
1.000000
1.000000
1.000000
1.000000
1.000000
1.000000
1.000000
1.000000
1.000000
1.000000
1.000000
1.000000
1.000000
1.000000
1.000000
1.000000
1.000000
1.000000
1.000000
1.000000
1.000000
1.000000
1.000000
1.000000
1.000000
1.000000
1.000000
1.000000
1.000000
1.000000
1.000000
1.000000
1.000000
1.000000
1.000000
1.000000
1.000000
1.000000
1.000000
1.000000
1.000000
1.000000
1.000000
1.000000
1.000000
1.000000
1.000000
1.000000
1.000000
1.000000
1.000000
1.000000
1.000000
1.000000
1.000000
1.000000
1.000000
1.000000
1.000000
1.000000
1.000000
1.000000
1.000000
1.000000
1.000000
1.000000
1.000000
1.000000
1.000000
1.000000
1.000000
1.000000
1.000000
1.000000
1.000000
1.000000
1.000000
1.000000
1.000000
1.000000
1.000000
1.000000
1.000000
1.000000
1.000000
1.000000
1.000000
1.000000
1.000000
1.000000
1.000000
1.000000
1.000000
1.000000
1.000000
1.000000
1.000000
1.000000
1.000000
1.000000
VECTORS v double
-10.003422 0.002685 0.000000
-10.003461 0.000035 0.000000
-10.003462 -0.000000 0.000000
-10.003462 -0.000000 0.000000
-10.003462 0.000000 0.000000
-10.003462 0.000000 0.000000
-10.003462 -0.000000 0.000000
-10.003462 -0.000000 0.000000
-10.003462 0.000000 0.000000
-10.003462 -0.000000 0.000000
-10.003462 0.000000 0.000000
-10.003462 0.000000 0.000000
-10.003462 -0.000000 0.000000
-10.003462 -0.000000 0.000000
-10.003462 -0.000000 0.000000
-10.003462 0.000000 0.000000
-10.003462 -0.000000 0.000000
-10.003462 -0.000000 0.000000
-10.003462 0.000000 0.000000
-10.003462 0.000000 0.000000
-10.003462 -0.000000 0.000000
-10.003462 0.000000 0.000000
-10.003462 0.000000 0.000000
-10.003461 -0.000035 0.000000
-10.003422 -0.002685 0.000000
10.002398 0.001004 0.000000
10.002387 -0.000003 0.000000
10.002388 -0.000000 0.000000
10.002388 -0.000000 0.000000
10.002388 0.000000 0.000000
10.002388 -0.000000 0.000000
10.002388 -0.000000 0.000000
10.002388 -0.000000 0.000000
10.002388 0.000000 0.000000
10.002388 -0.000000 0.000000
10.002388 -0.000000 0.000000
10.002388 0.000000 0.000000
10.002388 -0.000000 0.000000
10.002388 -0.000000 0.000000
10.002388 -0.000000 0.000000
10.002388 0.000000 0.000000
10.002388 -0.000000 0.000000
10.002388 -0.000000 0.000000
10.002388 0.000000 0.000000
10.002388 0.000000 0.000000
10.002388 -0.000000 0.000000
10.002388 0.000000 0.000000
10.002388 0.000000 0.000000
10.002387 0.000003 0.000000
10.002398 -0.001004 0.000000
-10.001300 0.001525 0.000000
-10.001320 0.000011 0.000000
-10.001320 -0.000000 0.000000
-10.001320 -0.000000 0.000000
-10.001320 0.000000 0.000000
-10.001320 -0.000000 0.000000
-10.001320 -0.000000 0.000000
-10.001320 -0.000000 0.000000
-10.001320 0.000000 0.000000
-10.001320 -0.000000 0.000000
-10.001320 -0.000000 0.000000
-10.001320 0.000000 0.000000
-10.001320 -0.000000 0.000000
-10.001320 -0.000000 0.000000
-10.001320 -0.000000 0.000000
-10.001320 0.000000 0.000000
-10.001320 -0.000000 0.000000
-10.001320 -0.000000 0.000000
-10.001320 0.000000 0.000000
-10.001320 0.000000 0.000000
-10.001320 -0.000000 0.000000
-10.001320 0.000000 0.000000
-10.001320 0.000000 0.000000
-10.001320 -0.000011 0.000000
-10.001300 -0.001525 0.000000
-10.000004 0.001501 0.000000
-10.000005 0.000010 0.000000
-10.000005 -0.000000 0.000000
-10.000005 -0.000000 0.000000
-10.000005 0.000000 0.000000
-10.000005 -0.000000 0.000000
-10.000005 -0.000000 0.000000
-10.000005 -0.000000 0.000000
-10.000005 0.000000 0.000000
-10.000005 -0.000000 0.000000
-10.000005 -0.000000 0.000000
-10.000005 0.000000 0.000000
-10.000005 -0.000000 0.000000
-10.000005 -0.000000 0.000000
-10.000005 -0.000000 0.000000
-10.000005 0.000000 0.000000
-10.000005 -0.000000 0.000000
-10.000005 -0.000000 0.000000
-10.000005 0.000000 0.000000
-10.000005 0.000000 0.000000
-10.000005 -0.000000 0.000000
-10.000005 0.000000 0.000000
-10.000005 0.000000 0.000000
-10.000005 -0.000010 0.000000
-10.000004 -0.001501 0.000000
-10.000000 0.001500 0.000000
-10.000000 0.000010 0.000000
-10.000000 -0.000000 0.000000
-10.000000 -0.000000 0.000000
-10.000000 0.000000 0.000000
-10.000000 -0.000000 0.000000
-10.000000 -0.000000 0.000000
-10.000000 -0.000000 0.000000
-10.000000 0.000000 0.000000
-10.000000 -0.000000 0.000000
-10.000000 -0.000000 0.000000
-10.000000 0.000000 0.000000
-10.000000 -0.000000 0.000000
-10.000000 -0.000000 0.000000
-10.000000 -0.000000 0.000000
-10.000000 0.000000 0.000000
-10.000000 -0.000000 0.000000
-10.000000 -0.000000 0.000000
-10.000000 0.000000 0.000000
-10.000000 0.000000 0.000000
-10.000000 -0.000000 0.000000
-10.000000 0.000000 0.000000
-10.000000 0.000000 0.000000
-10.000000 -0.000010 0.000000
-10.000000 -0.001500 0.000000
-10.000000 0.001500 0.000000
-10.000000 0.000010 0.000000
-10.000000 -0.000000 0.000000
-10.000000 -0.000000 0.000000
-10.000000 0.000000 0.000000
-10.000000 -0.000000 0.000000
-10.000000 -0.000000 0.000000
-10.000000 -0.000000 0.000000
-10.000000 0.000000 0.000000
-10.000000 -0.000000 0.000000
-10.000000 -0.000000 0.000000
-10.000000 0.000000 0.000000
-10.000000 -0.000000 0.000000
-10.000000 -0.000000 0.000000
-10.000000 -0.000000 0.000000
-10.000000 0.000000 0.000000
-10.000000 -0.000000 0.000000
-10.000000 -0.000000 0.000000
-10.000000 0.000000 0.000000
-10.000000 0.000000 0.000000
-10.000000 -0.000000 0.000000
-10.000000 0.000000 0.000000
-10.000000 0.000000 0.000000
-10.000000 -0.000010 0.000000
-10.000000 -0.001500 0.000000
-10.000000 0.001500 0.000000
-10.000000 0.000010 0.000000
-10.000000 -0.000000 0.000000
-10.000000 -0.000000 0.000000
-10.000000 0.000000 0.000000
-10.000000 -0.000000 0.000000
-10.000000 -0.000000 0.000000
-10.000000 -0.000000 0.000000
-10.000000 0.000000 0.000000
-10.000000 -0.000000 0.000000
-10.000000 -0.000000 0.000000
-10.000000 0.000000 0.000000
-10.000000 -0.000000 0.000000
-10.000000 -0.000000 0.000000
-10.000000 -0.000000 0.000000
-10.000000 0.000000 0.000000
-10.000000 -0.000000 0.000000
-10.000000 -0.000000 0.000000
-10.000000 0.000000 0.000000
-10.000000 0.000000 0.000000
-10.000000 -0.000000 0.000000
-10.000000 0.000000 0.000000
-10.000000 0.000000 0.000000
-10.000000 -0.000010 0.000000
-10.000000 -0.001500 0.000000
-10.000000 0.001500 0.000000
-10.000000 0.000010 0.000000
-10.000000 -0.000000 0.000000
-10.000000 -0.000000 0.000000
-10.000000 0.000000 0.000000
-10.000000 -0.000000 0.000000
-10.000000 -0.000000 0.000000
-10.000000 -0.000000 0.000000
-10.000000 0.000000 0.000000
-10.000000 -0.000000 0.000000
-10.000000 -0.000000 0.000000
-10.000000 0.000000 0.000000
-10.000000 -0.000000 0.000000
-10.000000 -0.000000 0.000000
-10.000000 -0.000000 0.000000
-10.000000 0.000000 0.000000
-10.000000 -0.000000 0.000000
-10.000000 -0.000000 0.000000
-10.000000 0.000000 0.000000
-10.000000 0.000000 0.000000
-10.000000 -0.000000 0.000000
-10.000000 0.000000 0.000000
-10.000000 0.000000 0.000000
-10.000000 -0.000010 0.000000
-10.000000 -0.001500 0.000000
-10.000000 0.001500 0.000000
-10.000000 0.000010 0.000000
-10.000000 -0.000000 0.000000
-10.000000 -0.000000 0.000000
-10.000000 0.000000 0.000000
-10.000000 -0.000000 0.000000
-10.000000 -0.000000 0.000000
-10.000000 -0.000000 0.000000
-10.000000 0.000000 0.000000
-10.000000 -0.000000 0.000000
-10.000000 0.000000 0.000000
-10.000000 0.000000 0.000000
-10.000000 -0.000000 0.000000
-10.000000 -0.000000 0.000000
-10.000000 -0.000000 0.000000
-10.000000 0.000000 0.000000
-10.000000 -0.000000 0.000000
-10.000000 -0.000000 0.000000
-10.000000 0.000000 0.000000
-10.000000 0.000000 0.000000
-10.000000 -0.000000 0.000000
-10.000000 0.000000 0.000000
-10.000000 0.000000 0.000000
-10.000000 -0.000010 0.000000
-10.000000 -0.001500 0.000000
-10.000000 0.001500 0.000000
-10.000000 0.000010 0.000000
-10.000000 -0.000000 0.000000
-10.000000 -0.000000 0.000000
-10.000000 0.000000 0.000000
-10.000000 -0.000000 0.000000
-10.000000 -0.000000 0.000000
-10.000000 -0.000000 0.000000
-10.000000 0.000000 0.000000
-10.000000 -0.000000 0.000000
-10.000000 -0.000000 0.000000
-10.000000 0.000000 0.000000
-10.000000 -0.000000 0.000000
-10.000000 -0.000000 0.000000
-10.000000 -0.000000 0.000000
-10.000000 0.000000 0.000000
-10.000000 -0.000000 0.000000
-10.000000 -0.000000 0.000000
-10.000000 0.000000 0.000000
-10.000000 0.000000 0.000000
-10.000000 -0.000000 0.000000
-10.000000 0.000000 0.000000
-10.000000 0.000000 0.000000
-10.000000 -0.000010 0.000000
-10.000000 -0.001500 0.000000
-10.000000 0.001500 0.000000
-10.000000 0.000010 0.000000
-10.000000 -0.000000 0.000000
-10.000000 -0.000000 0.000000
-10.000000 0.000000 0.000000
-10.000000 -0.000000 0.000000
-10.000000 -0.000000 0.000000
-10.000000 -0.000000 0.000000
-10.000000 0.000000 0.000000
-10.000000 -0.000000 0.000000
-10.000000 -0.000000 0.000000
-10.000000 0.000000 0.000000
-10.000000 -0.000000 0.000000
-10.000000 -0.000000 0.000000
-10.000000 -0.000000 0.000000
-10.000000 0.000000 0.000000
-10.000000 -0.000000 0.000000
-10.000000 -0.000000 0.000000
-10.000000 0.000000 0.000000
-10.000000 0.000000 0.000000
-10.000000 -0.000000 0.000000
-10.000000 0.000000 0.000000
-10.000000 0.000000 0.000000
-10.000000 -0.000010 0.000000
-10.000000 -0.001500 0.000000
-10.000000 0.001500 0.000000
-10.000000 0.000010 0.000000
-10.000000 -0.000000 0.000000
-10.000000 -0.000000 0.000000
-10.000000 0.000000 0.000000
-10.000000 -0.000000 0.000000
-10.000000 -0.000000 0.000000
-10.000000 -0.000000 0.000000
-10.000000 0.000000 0.000000
-10.000000 -0.000000 0.000000
-10.000000 0.000000 0.000000
-10.000000 0.000000 0.000000
-10.000000 -0.000000 0.000000
-10.000000 -0.000000 0.000000
-10.000000 -0.000000 0.000000
-10.000000 0.000000 0.000000
-10.000000 -0.000000 0.000000
-10.000000 -0.000000 0.000000
-10.000000 0.000000 0.000000