# vtk DataFile Version 4.0
hesp visualization file
ASCII
DATASET UNSTRUCTURED_GRID
POINTS 1250 double
33.028940 1.695769 4.000000
30.621607 3.639574 4.000000
31.248350 3.393601 4.000000
30.366980 4.492239 4.000000
30.370867 5.612279 4.000000
30.370800 6.734771 4.000000
30.370800 7.857234 4.000000
30.370800 8.979696 4.000000
30.370800 10.102158 4.000000
30.370800 11.224620 4.000000
30.370800 12.347083 4.000000
30.370800 13.469545 4.000000
30.370800 14.592007 4.000000
30.370800 15.714469 4.000000
30.370800 16.836931 4.000000
30.370800 17.959393 4.000000
30.370800 19.081855 4.000000
30.370800 20.204317 4.000000
30.370800 21.326779 4.000000
30.370800 22.449242 4.000000
30.370867 23.571734 4.000000
30.366980 24.691834 4.000000
31.248497 25.790570 4.000000
30.621606 25.544438 4.000000
33.028936 27.488242 4.000000
31.132952 -2.604363 4.000000
32.071970 2.005288 4.000000
31.270447 3.051504 4.000000
31.033495 4.330047 4.000000
31.141155 5.898066 4.000000
30.955811 6.734768 4.000000
30.955811 7.857234 4.000000
30.955811 8.979696 4.000000
30.955811 10.102158 4.000000
30.955811 11.224620 4.000000
30.955811 12.347083 4.000000
30.955811 13.469545 4.000000
30.955811 14.592007 4.000000
30.955811 15.714469 4.000000
30.955811 16.836931 4.000000
30.955811 17.959393 4.000000
30.955811 19.081855 4.000000
30.955811 20.204317 4.000000
30.955811 21.326779 4.000000
30.955811 22.449245 4.000000
31.141152 23.285962 4.000000
31.033289 24.853720 4.000000
31.270397 26.132502 4.000000
32.071969 27.178726 4.000000
31.132952 31.788376 4.000000
30.690658 0.954193 4.000000
31.770358 2.667338 4.000000
30.741150 5.506804 4.000000
31.624639 4.747252 4.000000
31.703911 5.611093 4.000000
31.697630 6.734770 4.000000
31.697631 7.857234 4.000000
31.697631 8.979696 4.000000
31.697631 10.102158 4.000000
31.697631 11.224620 4.000000
31.697631 12.347083 4.000000
31.697631 13.469545 4.000000
31.697631 14.592007 4.000000
31.697631 15.714469 4.000000
31.697631 16.836931 4.000000
31.697631 17.959393 4.000000
31.697631 19.081855 4.000000
31.697631 20.204317 4.000000
31.697631 21.326779 4.000000
31.697630 22.449243 4.000000
31.703905 23.572919 4.000000
31.624839 24.436997 4.000000
30.741152 23.677217 4.000000
31.770341 26.516691 4.000000
30.690659 28.229820 4.000000
31.767612 -0.575327 4.000000
31.902796 0.192430 4.000000
32.549370 3.730023 4.000000
32.306775 4.332614 4.000000
32.282238 5.612316 4.000000
32.282239 6.734772 4.000000
32.282239 7.857234 4.000000
32.282239 8.979696 4.000000
32.282239 10.102158 4.000000
32.282239 11.224620 4.000000
32.282239 12.347083 4.000000
32.282239 13.469545 4.000000
32.282239 14.592007 4.000000
32.282239 15.714469 4.000000
32.282239 16.836931 4.000000
32.282239 17.959393 4.000000
32.282239 19.081855 4.000000
32.282239 20.204317 4.000000
32.282239 21.326779 4.000000
32.282239 22.449241 4.000000
32.282238 23.571697 4.000000
32.306639 24.851046 4.000000
32.549277 25.453772 4.000000
31.902796 28.991583 4.000000
31.767612 29.759340 4.000000
34.052259 2.810482 4.000000
30.726671 2.773529 4.000000
32.587961 2.951211 4.000000
33.038319 4.587097 4.000000
33.024626 5.612305 4.000000
33.024634 6.734772 4.000000
33.024635 7.857234 4.000000
33.024635 8.979696 4.000000
33.024635 10.102158 4.000000
33.024635 11.224620 4.000000
33.024635 12.347083 4.000000
33.024635 13.469545 4.000000
33.024635 14.592007 4.000000
33.024635 15.714469 4.000000
33.024635 16.836931 4.000000
33.024635 17.959393 4.000000
33.024635 19.081855 4.000000
33.024635 20.204317 4.000000
33.024635 21.326779 4.000000
33.024634 22.449241 4.000000
33.024626 23.571709 4.000000
33.038485 24.597262 4.000000
32.588106 26.233077 4.000000
30.726673 26.410482 4.000000
34.052259 26.373530 4.000000
31.187825 0.602026 4.000000
33.169821 1.433821 4.000000
34.040773 3.722378 4.000000
33.608584 4.490911 4.000000
33.608585 5.612313 4.000000
33.608585 6.734772 4.000000
33.608585 7.857234 4.000000
33.608585 8.979696 4.000000
33.608585 10.102158 4.000000
33.608585 11.224620 4.000000
33.608585 12.347083 4.000000
33.608585 13.469545 4.000000
33.608585 14.592007 4.000000
33.608585 15.714469 4.000000
33.608585 16.836931 4.000000
33.608585 17.959393 4.000000
33.608585 19.081855 4.000000
33.608585 20.204317 4.000000
33.608585 21.326779 4.000000
33.608585 22.449241 4.000000
33.608585 23.571701 4.000000
33.608585 24.692876 4.000000
34.040620 25.461393 4.000000
33.169823 27.750191 4.000000
31.187825 28.581987 4.000000
32.221336 2.299890 4.000000
35.600917 2.938290 4.000000
33.820423 3.262683 4.000000
34.351668 4.489004 4.000000
34.351695 5.612309 4.000000
34.351696 6.734772 4.000000
34.351696 7.857234 4.000000
34.351696 8.979696 4.000000
34.351696 10.102158 4.000000
34.351696 11.224620 4.000000
34.351696 12.347083 4.000000
34.351696 13.469545 4.000000
34.351696 14.592007 4.000000
34.351696 15.714469 4.000000
34.351696 16.836931 4.000000
34.351696 17.959393 4.000000
34.351696 19.081855 4.000000
34.351696 20.204317 4.000000
34.351696 21.326779 4.000000
34.351696 22.449241 4.000000
34.351695 23.571705 4.000000
34.351667 24.695191 4.000000
33.820437 25.921428 4.000000
35.600894 26.245747 4.000000
32.221337 26.884125 4.000000
36.197390 -1.115515 4.000000
34.217920 3.323850 4.000000
35.272859 3.336253 4.000000
34.934952 4.489990 4.000000
34.934950 5.612310 4.000000
34.934950 6.734772 4.000000
34.934950 7.857234 4.000000
34.934950 8.979696 4.000000
34.934950 10.102158 4.000000
34.934950 11.224620 4.000000
34.934950 12.347083 4.000000
34.934950 13.469545 4.000000
34.934950 14.592007 4.000000
34.934950 15.714469 4.000000
34.934950 16.836931 4.000000
34.934950 17.959393 4.000000
34.934950 19.081855 4.000000
34.934950 20.204317 4.000000
34.934950 21.326779 4.000000
34.934950 22.449241 4.000000
34.934950 23.571703 4.000000
34.934952 24.693965 4.000000
35.272768 25.847672 4.000000
34.217913 25.860170 4.000000
36.197390 30.299528 4.000000
34.153280 2.387759 4.000000
35.340185 2.366716 4.000000
35.503372 3.877090 4.000000
35.678666 4.489727 4.000000
35.678667 5.612310 4.000000
35.678667 6.734772 4.000000
35.678667 7.857234 4.000000
35.678667 8.979696 4.000000
35.678667 10.102158 4.000000
35.678667 11.224620 4.000000
35.678667 12.347083 4.000000
35.678667 13.469545 4.000000
35.678667 14.592007 4.000000
35.678667 15.714469 4.000000
35.678667 16.836931 4.000000
35.678667 17.959393 4.000000
35.678667 19.081855 4.000000
35.678667 20.204317 4.000000
35.678667 21.326779 4.000000
35.678667 22.449241 4.000000
35.678667 23.571703 4.000000
35.678666 24.694328 4.000000
35.503476 25.306926 4.000000
35.340193 26.817293 4.000000
34.153280 26.796255 4.000000
34.424240 1.124425 4.000000
35.931872 1.080349 4.000000
36.262269 3.393053 4.000000
36.261385 4.489841 4.000000
36.261386 5.612310 4.000000
36.261386 6.734772 4.000000
36.261386 7.857234 4.000000
36.261386 8.979696 4.000000
36.261386 10.102158 4.000000
36.261386 11.224620 4.000000
36.261386 12.347083 4.000000
36.261386 13.469545 4.000000
36.261386 14.592007 4.000000
36.261386 15.714469 4.000000
36.261386 16.836931 4.000000
36.261386 17.959393 4.000000
36.261386 19.081855 4.000000
36.261386 20.204317 4.000000
36.261386 21.326779 4.000000
36.261386 22.449241 4.000000
36.261386 23.571703 4.000000
36.261385 24.694165 4.000000
36.262270 25.790932 4.000000
35.931872 28.103664 4.000000
34.424240 28.059588 4.000000
35.507739 1.098649 4.000000
37.331909 3.108457 4.000000
37.004492 3.349300 4.000000
37.005405 4.489852 4.000000
37.005407 5.612310 4.000000
37.005407 6.734772 4.000000
37.005407 7.857234 4.000000
37.005407 8.979696 4.000000
37.005407 10.102158 4.000000
37.005407 11.224620 4.000000
37.005407 12.347083 4.000000
37.005407 13.469545 4.000000
37.005407 14.592007 4.000000
37.005407 15.714469 4.000000
37.005407 16.836931 4.000000
37.005407 17.959393 4.000000
37.005407 19.081855 4.000000
37.005407 20.204317 4.000000
37.005407 21.326779 4.000000
37.005407 22.449241 4.000000
37.005407 23.571703 4.000000
37.005405 24.694167 4.000000
37.004490 25.834732 4.000000
37.331909 26.075556 4.000000
35.507739 28.085364 4.000000
36.669497 1.124521 4.000000
36.667483 2.248336 4.000000
37.587684 3.368078 4.000000
37.587895 4.489845 4.000000
37.587896 5.612310 4.000000
37.587896 6.734772 4.000000
37.587896 7.857234 4.000000
37.587896 8.979696 4.000000
37.587896 10.102158 4.000000
37.587896 11.224620 4.000000
37.587896 12.347083 4.000000
37.587896 13.469545 4.000000
37.587896 14.592007 4.000000
37.587896 15.714469 4.000000
37.587896 16.836931 4.000000
37.587896 17.959393 4.000000
37.587896 19.081855 4.000000
37.587896 20.204317 4.000000
37.587896 21.326779 4.000000
37.587896 22.449241 4.000000
37.587896 23.571703 4.000000
37.587895 24.694168 4.000000
37.587684 25.815934 4.000000
36.667483 26.935677 4.000000
36.669497 28.059492 4.000000
37.792006 1.124506 4.000000
37.791994 2.244948 4.000000
38.331003 3.366840 4.000000
38.331107 4.489850 4.000000
38.331107 5.612310 4.000000
38.331107 6.734772 4.000000
38.331107 7.857234 4.000000
38.331107 8.979696 4.000000
38.331107 10.102158 4.000000
38.331107 11.224620 4.000000
38.331107 12.347083 4.000000
38.331107 13.469545 4.000000
38.331107 14.592007 4.000000
38.331107 15.714469 4.000000
38.331107 16.836931 4.000000
38.331107 17.959393 4.000000
38.331107 19.081855 4.000000
38.331107 20.204317 4.000000
38.331107 21.326779 4.000000
38.331107 22.449241 4.000000
38.331107 23.571703 4.000000
38.331107 24.694164 4.000000
38.331003 25.817174 4.000000
37.791994 26.939065 4.000000
37.792006 28.059507 4.000000
38.914469 1.124506 4.000000
38.914468 2.244935 4.000000
38.914451 3.367386 4.000000
38.914450 4.489848 4.000000
38.914450 5.612310 4.000000
38.914450 6.734772 4.000000
38.914450 7.857234 4.000000
38.914450 8.979696 4.000000
38.914450 10.102158 4.000000
38.914450 11.224620 4.000000
38.914450 12.347083 4.000000
38.914450 13.469545 4.000000
38.914450 14.592007 4.000000
38.914450 15.714469 4.000000
38.914450 16.836931 4.000000
38.914450 17.959393 4.000000
38.914450 19.081855 4.000000
38.914450 20.204317 4.000000
38.914450 21.326779 4.000000
38.914450 22.449241 4.000000
[...]
POINT_DATA 1250
SCALARS m double
LOOKUP_TABLE default
1.000000
1.000000
1.000000
1.000000
1.000000
1.000000
1.000000
1.000000
1.000000
1.000000
1.000000
1.000000
1.000000
1.000000
1.000000
1.000000
1.000000
1.000000
1.000000
1.000000
1.000000
1.000000
1.000000
1.000000
1.000000
1.000000
1.000000
1.000000
1.000000
1.000000
1.000000
1.000000
1.000000
1.000000
1.000000
1.000000
1.000000
1.000000
1.000000
1.000000
1.000000
1.000000
1.000000
1.000000
1.000000
1.000000
1.000000
1.000000
1.000000
1.000000
1.000000
1.000000
1.000000
1.000000
1.000000
1.000000
1.000000
1.000000
1.000000
1.000000
1.000000
1.000000
1.000000
1.000000
1.000000
1.000000
1.000000
1.000000
1.000000
1.000000
1.000000
1.000000
1.000000
1.000000
1.000000
1.000000
1.000000
1.000000
1.000000
1.000000
1.000000
1.000000
1.000000
1.000000
1.000000
1.000000
1.000000
1.000000
1.000000
1.000000
1.000000
1.000000
1.000000
1.000000
1.000000
1.000000
1.000000
1.000000
1.000000
1.000000
1.000000
1.000000
1.000000
1.000000
1.000000
1.000000
1.000000
1.000000
1.000000
1.000000
1.000000
1.000000
1.000000
1.000000
1.000000
1.000000
1.000000
1.000000
1.000000
1.000000
1.000000
1.000000
1.000000
1.000000
1.000000
1.000000
1.000000
1.000000
1.000000
1.000000
1.000000
1.000000
1.000000
1.000000
1.000000
1.000000
1.000000
1.000000
1.000000
1.000000
1.000000
1.000000
1.000000
1.000000
1.000000
1.000000
1.000000
1.000000
1.000000
1.000000
1.000000
1.000000
1.000000
1.000000
1.000000
1.000000
1.000000
1.000000
1.000000
1.000000
1.000000
1.000000
1.000000
1.000000
1.000000
1.000000
1.000000
1.000000
1.000000
1.000000
1.000000
1.000000
1.000000
1.000000
1.000000
1.000000
1.000000
1.000000
1.000000
1.000000
1.000000
1.000000
1.000000
1.000000
1.000000
1.000000
1.000000
1.000000
1.000000
1.000000
1.000000
1.000000
1.000000
1.000000
1.000000
1.000000
1.000000
1.000000
1.000000
1.000000
1.000000
1.000000
1.000000
1.000000
1.000000
1.000000
1.000000
1.000000
1.000000
1.000000
1.000000
1.000000
1.000000
1.000000
1.000000
1.000000
1.000000
1.000000
1.000000
1.000000
1.000000
1.000000
1.000000
1.000000
1.000000
1.000000
1.000000
1.000000
1.000000
1.000000
1.000000
1.000000
1.000000
1.000000
1.000000
1.000000
1.000000
1.000000
1.000000
1.000000
1.000000
1.000000
1.000000
1.000000
1.000000
1.000000
1.000000
1.000000
1.000000
1.000000
1.000000
1.000000
1.000000
1.000000
1.000000
1.000000
1.000000
1.000000
1.000000
1.000000
1.000000
1.000000
1.000000
1.000000
1.000000
1.000000
1.000000
1.000000
1.000000
1.000000
1.000000
1.000000
1.000000
1.000000
1.000000
1.000000
1.000000
1.000000
1.000000
1.000000
1.000000
1.000000
1.000000
1.000000
1.000000
1.000000
1.000000
1.000000
1.000000
1.000000
1.000000
1.000000
1.000000
1.000000
1.000000
1.000000
1.000000
1.000000
1.000000
1.000000
1.000000
1.000000
1.000000
1.000000
1.000000
1.000000
1.000000
1.000000
1.000000
1.000000
1.000000
1.000000
1.000000
1.000000
1.000000
1.000000
1.000000
1.000000
1.000000
1.000000
1.000000
1.000000
1.000000
1.000000
1.000000
1.000000
1.000000
1.000000
1.000000
1.000000
1.000000
1.000000
1.000000
1.000000
1.000000
1.000000
1.000000
1.000000
1.000000
1.000000
1.000000
1.000000
1.000000
1.000000
1.000000
1.000000
1.000000
1.000000
1.000000
1.000000
1.000000
1.000000
1.000000
1.000000
1.000000
1.000000
1.000000
1.000000
1.000000
1.000000
1.000000
1.000000
1.000000
1.000000
1.000000
1.000000
1.000000
1.000000
1.000000
1.000000
1.000000
1.000000
1.000000
1.000000
1.000000
1.000000
1.000000
1.000000
1.000000
1.000000
1.000000
1.000000
1.000000
1.000000
1.000000
1.000000
1.000000
1.000000
1.000000
1.000000
1.000000
1.000000
1.000000
1.000000
1.000000
1.000000
1.000000
1.000000
1.000000
1.000000
1.000000
1.000000
1.000000
1.000000
1.000000
1.000000
1.000000
1.000000
1.000000
1.000000
1.000000
1.000000
1.000000
1.000000
1.000000
1.000000
1.000000
1.000000
1.000000
1.000000
1.000000
1.000000
1.000000
1.000000
1.000000
1.000000
1.000000
1.000000
1.000000
1.000000
1.000000
1.000000
1.000000
1.000000
1.000000
1.000000
1.000000
1.000000
1.000000
1.000000
1.000000
1.000000
1.000000
1.000000
1.000000
1.000000
1.000000
1.000000
1.000000
1.000000
1.000000
1.000000
1.000000
1.000000
1.000000
1.000000
1.000000
1.000000
1.000000
1.000000
1.000000
1.000000
1.000000
1.000000
1.000000
1.000000
1.000000
1.000000
1.000000
1.000000
1.000000
1.000000
1.000000
1.000000
1.000000
1.000000
1.000000
1.000000
1.000000
1.000000
1.000000
1.000000
1.000000
1.000000
1.000000
1.000000
1.000000
1.000000
1.000000
1.000000
1.000000
1.000000
1.000000
1.000000
1.000000
1.000000
1.000000
1.000000
1.000000
1.000000
1.000000
1.000000
1.000000
1.000000
1.000000
1.000000
1.000000
1.000000
1.000000
1.000000
1.000000
1.000000
1.000000
1.000000
1.000000
1.000000
1.000000
1.000000
1.000000
1.000000
1.000000
1.000000
1.000000
1.000000
1.000000
1.000000
1.000000
1.000000
1.000000
1.000000
1.000000
1.000000
1.000000
1.000000
1.000000
1.000000
1.000000
1.000000
1.000000
1.000000
1.000000
1.000000
1.000000
1.000000
1.000000
1.000000
1.000000
1.000000
1.000000
1.000000
1.000000
1.000000
1.000000
1.000000
1.000000
1.000000
1.000000
1.000000
1.000000
1.000000
1.000000
1.000000
1.000000
1.000000
1.000000
1.000000
1.000000
1.000000
1.000000
1.000000
1.000000
1.000000
1.000000
1.000000
1.000000
1.000000
1.000000
1.000000
1.000000
1.000000
1.000000
1.000000
1.000000
1.000000
1.000000
1.000000
1.000000
1.000000
1.000000
1.000000
1.000000
1.000000
1.000000
1.000000
1.000000
1.000000
1.000000
1.000000
1.000000
1.000000
1.000000
1.000000
1.000000
1.000000
1.000000
1.000000
1.000000
1.000000
1.000000
1.000000
1.000000
1.000000
1.000000
1.000000
1.000000
1.000000
1.000000
1.000000
1.000000
1.000000
1.000000
1.000000
1.000000
1.000000
1.000000
1.000000
1.000000
1.000000
1.000000
1.000000
1.000000
1.000000
1.000000
1.000000
1.000000
1.000000
1.000000
1.000000
1.000000
1.000000
1.000000
1.000000
1.000000
1.000000
1.000000
1.000000
1.000000
1.000000
1.000000
1.000000
1.000000
1.000000
1.000000
1.000000
1.000000
1.000000
1.000000
1.000000
1.000000
1.000000
1.000000
1.000000
1.000000
1.000000
1.000000
1.000000
1.000000
1.000000
1.000000
1.000000
1.000000
1.000000
1.000000
1.000000
1.000000
1.000000
1.000000
1.000000
1.000000
1.000000
1.000000
1.000000
1.000000
1.000000
1.000000
1.000000
1.000000
1.000000
1.000000
1.000000
1.000000
1.000000
1.000000
1.000000
1.000000
1.000000
1.000000
1.000000
1.000000
1.000000
1.000000
1.000000
1.000000
1.000000
1.000000
1.000000
1.000000
1.000000
1.000000
1.000000
1.000000
1.000000
1.000000
1.000000
1.000000
1.000000
1.000000
1.000000
1.000000
1.000000
1.000000
1.000000
1.000000
1.000000
1.000000
1.000000
1.000000
1.000000
1.000000
1.000000
1.000000
1.000000
1.000000
1.000000
1.000000
1.000000
1.000000
1.000000
1.000000
1.000000
1.000000
1.000000
1.000000
1.000000
1.000000
1.000000
1.000000
1.000000
1.000000
1.000000
1.000000
1.000000
1.000000
1.000000
1.000000
1.000000
1.000000
1.000000
1.000000
1.000000
1.000000
1.000000
1.000000
1.000000
1.000000
1.000000
1.000000
1.000000
1.000000
1.000000
1.000000
1.000000
1.000000
1.000000
1.000000
1.000000
1.000000
1.000000
1.000000
1.000000
1.000000
1.000000
1.000000
1.000000
1.000000
1.000000
1.000000
1.000000
1.000000
1.000000
1.000000
1.000000
1.000000
1.000000
1.000000
1.000000
1.000000
1.000000
1.000000
1.000000
1.000000
1.000000
1.000000
1.000000
1.000000
1.000000
1.000000
1.000000
1.000000
1.000000
1.000000
1.000000
1.000000
1.000000
1.000000
1.000000
1.000000
1.000000
1.000000
1.000000
1.000000
1.000000
1.000000
1.000000
1.000000
1.000000
1.000000
1.000000
1.000000
1.000000
1.000000
1.000000
1.000000
1.000000
1.000000
1.000000
1.000000
1.000000
1.000000
1.000000
1.000000
1.000000
1.000000
1.000000
1.000000
1.000000
1.000000
1.000000
1.000000
1.000000
1.000000
1.000000
1.000000
1.000000
1.000000
1.000000
1.000000
1.000000
1.000000
1.000000
1.000000
1.000000
1.000000
1.000000
1.000000
1.000000
1.000000
1.000000
1.000000
1.000000
1.000000
1.000000
1.000000
1.000000
1.000000
1.000000
1.000000
1.000000
1.000000
1.000000
1.000000
1.000000
1.000000
1.000000
1.000000
1.000000
1.000000
1.000000
1.000000
1.000000
1.000000
1.000000
1.000000
1.000000
1.000000
1.000000
1.000000
1.000000
1.000000
1.000000
1.000000
1.000000
1.000000
1.000000
1.000000
1.000000
1.000000
1.000000
1.000000
1.000000
1.000000
1.000000
1.000000
1.000000
1.000000
1.000000
1.000000
1.000000
1.000000
1.000000
1.000000
1.000000
1.000000
1.000000
1.000000
1.000000
1.000000
1.000000
1.000000
1.000000
1.000000
1.000000
1.000000
1.000000
1.000000
1.000000
1.000000
1.000000
1.000000
1.000000
1.000000
1.000000
1.000000
1.000000
1.000000
1.000000
1.000000
1.000000
1.000000
1.000000
1.000000
1.000000
1.000000
1.000000
1.000000
1.000000
1.000000
1.000000
1.000000
1.000000
1.000000
1.000000
1.000000
1.000000
1.000000
1.000000
1.000000
1.000000
1.000000
1.000000
1.000000
1.000000
1.000000
1.000000
1.000000
1.000000
1.000000
1.000000
1.000000
1.000000
1.000000
1.000000
1.000000
1.000000
1.000000
1.000000
1.000000
1.000000
1.000000
1.000000
1.000000
1.000000
1.000000
1.000000
1.000000
1.000000
1.000000
1.000000
1.000000
1.000000
1.000000
1.000000
1.000000
1.000000
1.000000
1.000000
1.000000
1.000000
1.000000
1.000000
1.000000
1.000000
1.000000
1.000000
1.000000
1.000000
1.000000
1.000000
1.000000
1.000000
1.000000
1.000000
1.000000
1.000000
1.000000
1.000000
1.000000
1.000000
1.000000
1.000000
1.000000
1.000000
1.000000
1.000000
1.000000
1.000000
1.000000
1.000000
1.000000
1.000000
1.000000
1.000000
1.000000
1.000000
1.000000
1.000000
1.000000
1.000000
1.000000
1.000000
1.000000
1.000000
1.000000
1.000000
1.000000
1.000000
1.000000
1.000000
1.000000
1.000000
1.000000
1.000000
1.000000
1.000000
1.000000
1.000000
1.000000
1.000000
1.000000
1.000000
1.000000
1.000000
1.000000
1.000000
1.000000
1.000000
1.000000
1.000000
1.000000
1.000000
1.000000
1.000000
1.000000
1.000000
1.000000
1.000000
1.000000
1.000000
1.000000
1.000000
1.000000
1.000000
1.000000
1.000000
1.000000
1.000000
1.000000
1.000000
1.000000
1.000000
1.000000
1.000000
1.000000
1.000000
1.000000
1.000000
1.000000
1.000000
1.000000
1.000000
1.000000
1.000000
1.000000
1.000000
1.000000
1.000000
1.000000
1.000000
1.000000
1.000000
1.000000
1.000000
1.000000
1.000000
1.000000
1.000000
1.000000
1.000000
1.000000
1.000000
1.000000
1.000000
1.000000
1.000000
1.000000
1.000000
1.000000
1.000000
1.000000
1.000000
1.000000
1.000000
1.000000
1.000000
1.000000
1.000000
1.000000
1.000000
1.000000
1.000000
1.000000
1.000000
1.000000
1.000000
1.000000
1.000000
1.000000
1.000000
1.000000
1.000000
1.000000
1.000000
1.000000
1.000000
1.000000
1.000000
1.000000
1.000000
1.000000
1.000000
1.000000
1.000000
1.000000
1.000000
1.000000
1.000000
1.000000
1.000000
1.000000
1.000000
1.000000
1.000000
1.000000
1.000000
1.000000
1.000000
1.000000
1.000000
1.000000
1.000000
1.000000
1.000000
1.000000
1.000000
1.000000
1.000000
1.000000
1.000000
1.000000
1.000000
1.000000
1.000000
1.000000
1.000000
1.000000
1.000000
1.000000
1.000000
1.000000
1.000000
1.000000
1.000000
1.000000
1.000000
1.000000
1.000000
1.000000
1.000000
1.000000
1.000000
1.000000
1.000000
1.000000
1.000000
1.000000
1.000000
1.000000
1.000000
1.000000
1.000000
1.000000
1.000000
1.000000
1.000000
1.000000
1.000000
1.000000
1.000000
1.000000
1.000000
1.000000
1.000000
1.000000
1.000000
1.000000
1.000000
1.000000
1.000000
1.000000
1.000000
VECTORS v double
3.567027 7.456934 0.000000
6.651680 7.407944 0.000000
6.479059 5.259617 0.000000
9.952602 0.032765 0.000000
10.023196 -0.007221 0.000000
9.998765 -0.000065 0.000000
9.998739 -0.000001 0.000000
9.998739 0.000000 0.000000
9.998739 0.000000 0.000000
9.998739 -0.000000 0.000000
9.998739 0.000000 0.000000
9.998739 0.000000 0.000000
9.998739 -0.000000 0.000000
9.998739 -0.000000 0.000000
9.998739 -0.000000 0.000000
9.998739 0.000000 0.000000
9.998739 -0.000000 0.000000
9.998739 -0.000000 0.000000
9.998739 0.000001 0.000000
9.998765 0.000065 0.000000
10.023195 0.007221 0.000000
9.952611 -0.031960 0.000000
6.491307 -5.248732 0.000000
6.651672 -7.407957 0.000000
3.566560 -7.457110 0.000000
-2.630967 -13.726703 0.000000
8.159157 -2.661986 0.000000
-5.445829 -9.849903 0.000000
-7.464281 -6.032862 0.000000
-1.565179 12.851230 0.000000
-9.998635 -0.000440 0.000000
-9.998685 -0.000002 0.000000
-9.998685 0.000000 0.000000
-9.998685 0.000000 0.000000
-9.998685 -0.000000 0.000000
-9.998685 -0.000000 0.000000
-9.998685 0.000000 0.000000
-9.998685 -0.000000 0.000000
-9.998685 -0.000000 0.000000
-9.998685 -0.000000 0.000000
-9.998685 0.000000 0.000000
-9.998685 -0.000000 0.000000
-9.998685 -0.000000 0.000000
-9.998685 0.000002 0.000000
-9.998635 0.000440 0.000000
-1.564980 -12.851098 0.000000
-7.471174 6.025085 0.000000
-5.456623 9.841487 0.000000
8.159154 2.661992 0.000000
-2.630967 13.726703 0.000000
-9.317663 0.073861 0.000000
0.469093 -3.282596 0.000000
-14.295662 3.143103 0.000000
7.517516 7.267875 0.000000
10.241645 -0.036916 0.000000
9.999530 -0.000195 0.000000
9.999615 -0.000001 0.000000
9.999616 0.000000 0.000000
9.999616 0.000000 0.000000
9.999616 -0.000000 0.000000
9.999616 -0.000000 0.000000
9.999616 0.000000 0.000000
9.999616 -0.000000 0.000000
9.999616 -0.000000 0.000000
9.999616 -0.000000 0.000000
9.999616 0.000000 0.000000
9.999616 -0.000000 0.000000
9.999616 -0.000000 0.000000
9.999615 0.000001 0.000000
9.999530 0.000195 0.000000
10.241435 0.036853 0.000000
7.524321 -7.260190 0.000000
-14.295788 -3.142946 0.000000
0.468956 3.282681 0.000000
-9.317660 -0.073864 0.000000
-0.343905 -3.828541 0.000000
-6.981066 -10.486433 0.000000
8.935972 5.016832 0.000000
-9.231465 -4.312726 0.000000
-9.999762 0.000218 0.000000
-9.999501 -0.000020 0.000000
-9.999489 -0.000001 0.000000
-9.999489 0.000000 0.000000
-9.999489 0.000000 0.000000
-9.999489 -0.000000 0.000000
-9.999489 0.000000 0.000000
-9.999489 0.000000 0.000000
-9.999489 -0.000000 0.000000
-9.999489 -0.000000 0.000000
-9.999489 -0.000000 0.000000
-9.999489 0.000000 0.000000
-9.999489 -0.000000 0.000000
-9.999489 -0.000000 0.000000
-9.999489 0.000001 0.000000
-9.999501 0.000020 0.000000
-9.999762 -0.000217 0.000000
-9.235901 4.301893 0.000000
8.934561 -5.019829 0.000000
-6.981069 10.486432 0.000000
-0.343905 3.828541 0.000000
5.458551 5.738492 0.000000
-9.573791 2.248890 0.000000
-8.658994 -5.253860 0.000000
9.634144 3.488070 0.000000
10.000874 -0.000214 0.000000
10.001012 0.000005 0.000000
10.001017 -0.000000 0.000000
10.001017 0.000000 0.000000
10.001017 0.000000 0.000000
10.001017 -0.000000 0.000000
10.001017 0.000000 0.000000
10.001017 0.000000 0.000000
10.001017 -0.000000 0.000000
10.001017 -0.000000 0.000000
10.001017 -0.000000 0.000000
10.001017 0.000000 0.000000
10.001017 -0.000000 0.000000
10.001017 -0.000000 0.000000
10.001017 0.000000 0.000000
10.001012 -0.000005 0.000000
10.000874 0.000213 0.000000
9.638924 -3.477324 0.000000
-8.657069 5.257352 0.000000
-9.573772 -2.248916 0.000000
5.458548 -5.738529 0.000000
-1.127537 -6.317946 0.000000
-2.024041 -10.904712 0.000000
8.686834 4.566910 0.000000
-10.000933 0.031173 0.000000
-10.000861 0.000053 0.000000
-10.000851 -0.000000 0.000000
-10.000851 0.000000 0.000000
-10.000851 -0.000000 0.000000
-10.000851 0.000000 0.000000
-10.000851 -0.000000 0.000000
-10.000851 0.000000 0.000000
-10.000851 0.000000 0.000000
-10.000851 -0.000000 0.000000
-10.000851 -0.000000 0.000000
-10.000851 -0.000000 0.000000
-10.000851 0.000000 0.000000
-10.000851 -0.000000 0.000000
-10.000851 0.000000 0.000000
-10.000851 -0.000000 0.000000
-10.000851 0.000000 0.000000
-10.000861 -0.000052 0.000000
-10.000921 -0.037953 0.000000
8.684780 -4.570439 0.000000
-2.023592 10.904863 0.000000
-1.127542 6.317948 0.000000
-9.106379 4.046136 0.000000
3.787733 -5.416751 0.000000
-9.755706 -1.234124 0.000000
10.001899 -0.029757 0.000000
10.002524 -0.000065 0.000000
10.002531 -0.000000 0.000000
10.002531 -0.000000 0.000000
10.002531 0.000000 0.000000
10.002531 0.000000 0.000000
10.002531 -0.000000 0.000000
10.002531 0.000000 0.000000
10.002531 0.000000 0.000000
10.002531 -0.000000 0.000000
10.002531 -0.000000 0.000000
10.002531 -0.000000 0.000000
10.002531 0.000000 0.000000
10.002531 -0.000000 0.000000
10.002531 -0.000000 0.000000
10.002531 0.000000 0.000000
10.002531 0.000000 0.000000
10.002524 0.000064 0.000000
10.001876 0.035919 0.000000
-9.755448 1.235594 0.000000
3.787204 5.417305 0.000000
-9.106376 -4.046126 0.000000
4.837054 -9.997758 0.000000
-7.748772 10.598125 0.000000
1.545769 -3.569664 0.000000
-10.001860 0.003513 0.000000
-10.002282 -0.000001 0.000000
-10.002282 0.000000 0.000000
-10.002282 0.000000 0.000000
-10.002282 -0.000000 0.000000
-10.002282 0.000000 0.000000
-10.002282 -0.000000 0.000000
-10.002282 0.000000 0.000000
-10.002282 0.000000 0.000000
-10.002282 -0.000000 0.000000
-10.002282 -0.000000 0.000000
-10.002282 -0.000000 0.000000
-10.002282 0.000000 0.000000
-10.002282 -0.000000 0.000000
-10.002282 -0.000000 0.000000
-10.002282 -0.000000 0.000000
-10.002282 -0.000000 0.000000
-10.002282 0.000001 0.000000
-10.001859 -0.005208 0.000000
1.542055 3.568181 0.000000
-7.748871 -10.597958 0.000000
4.837054 9.997758 0.000000
-5.862840 6.276898 0.000000
4.862723 -1.637417 0.000000
2.637310 15.013984 0.000000
10.003218 -0.006581 0.000000
10.003729 -0.000007 0.000000
10.003729 -0.000000 0.000000
10.003729 0.000000 0.000000
10.003729 -0.000000 0.000000
10.003729 0.000000 0.000000
10.003729 -0.000000 0.000000
10.003729 -0.000000 0.000000
10.003729 0.000000 0.000000
10.003729 -0.000000 0.000000
10.003729 -0.000000 0.000000
10.003729 -0.000000 0.000000
10.003729 0.000000 0.000000
10.003729 -0.000000 0.000000
10.003729 0.000000 0.000000
10.003729 -0.000000 0.000000
10.003729 0.000000 0.000000
10.003729 0.000007 0.000000
10.003218 0.008058 0.000000
2.641425 -15.013901 0.000000
4.862816 1.637347 0.000000
-5.862840 -6.276898 0.000000
-10.002229 0.005762 0.000000
-3.904009 -8.283205 0.000000
-9.971893 0.741588 0.000000
-10.003484 -0.000292 0.000000
-10.003374 -0.000001 0.000000
-10.003374 0.000000 0.000000
-10.003374 0.000000 0.000000
-10.003374 -0.000000 0.000000
-10.003374 0.000000 0.000000
-10.003374 -0.000000 0.000000
-10.003374 -0.000000 0.000000
-10.003374 0.000000 0.000000
-10.003374 -0.000000 0.000000
-10.003374 -0.000000 0.000000
-10.003374 -0.000000 0.000000
-10.003374 0.000000 0.000000
-10.003374 -0.000000 0.000000
-10.003374 -0.000000 0.000000
-10.003374 -0.000000 0.000000
-10.003374 -0.000000 0.000000
-10.003374 0.000001 0.000000
-10.003484 0.000078 0.000000
-9.971841 -0.742406 0.000000
-3.904007 8.283200 0.000000
-10.002229 -0.005762 0.000000
-11.539971 -1.074316 0.000000
5.211437 7.415989 0.000000
10.019231 -0.675713 0.000000
10.004237 0.000108 0.000000
10.004264 -0.000001 0.000000
10.004265 0.000000 0.000000
10.004265 0.000000 0.000000
10.004265 -0.000000 0.000000
10.004265 0.000000 0.000000
10.004265 -0.000000 0.000000
10.004265 -0.000000 0.000000
10.004265 0.000000 0.000000
10.004265 -0.000000 0.000000
10.004265 -0.000000 0.000000
10.004265 -0.000000 0.000000
10.004265 0.000000 0.000000
10.004265 -0.000000 0.000000
10.004265 -0.000000 0.000000
10.004265 -0.000000 0.000000
10.004265 -0.000000 0.000000
10.004264 0.000001 0.000000
10.004237 0.000072 0.000000
10.019182 0.676400 0.000000
5.211434 -7.415990 0.000000
-11.539974 1.074320 0.000000
-10.002570 0.006342 0.000000
-10.029476 0.062288 0.000000
-10.042583 -0.010592 0.000000
-10.003947 -0.000097 0.000000
-10.003939 0.000000 0.000000
-10.003939 0.000000 0.000000
-10.003939 0.000000 0.000000
-10.003939 -0.000000 0.000000
-10.003939 0.000000 0.000000
-10.003939 -0.000000 0.000000
-10.003939 -0.000000 0.000000
-10.003939 0.000000 0.000000
-10.003939 -0.000000 0.000000
-10.003939 -0.000000 0.000000
-10.003939 -0.000000 0.000000
-10.003939 0.000000 0.000000
-10.003939 -0.000000 0.000000
-10.003939 -0.000000 0.000000
-10.003939 -0.000000 0.000000
-10.003939 -0.000000 0.000000
-10.003939 -0.000000 0.000000
-10.003947 0.000086 0.000000
-10.042583 0.010552 0.000000
-10.029476 -0.062288 0.000000
-10.002570 -0.006342 0.000000
-10.000016 0.006037 0.000000
-10.000468 0.000688 0.000000