# vtk DataFile Version 4.0
hesp visualization file
ASCII
DATASET UNSTRUCTURED_GRID
POINTS 1250 double
30.516358 1.251452 4.000000
30.527174 2.248084 4.000000
30.527161 3.367385 4.000000
30.527161 4.489848 4.000000
30.527161 5.612310 4.000000
30.527161 6.734772 4.000000
30.527161 7.857234 4.000000
30.527161 8.979696 4.000000
30.527161 10.102158 4.000000
30.527161 11.224620 4.000000
30.527161 12.347083 4.000000
30.527161 13.469545 4.000000
30.527161 14.592007 4.000000
30.527161 15.714469 4.000000
30.527161 16.836931 4.000000
30.527161 17.959393 4.000000
30.527161 19.081855 4.000000
30.527161 20.204317 4.000000
30.527161 21.326779 4.000000
30.527161 22.449241 4.000000
30.527161 23.571703 4.000000
30.527161 24.694165 4.000000
30.527161 25.816628 4.000000
30.527174 26.935929 4.000000
30.516358 27.932561 4.000000
31.391390 0.666889 4.000000
30.800036 2.224000 4.000000
30.799598 3.367392 4.000000
30.799598 4.489848 4.000000
30.799598 5.612310 4.000000
30.799598 6.734772 4.000000
30.799598 7.857234 4.000000
30.799598 8.979696 4.000000
30.799598 10.102158 4.000000
30.799598 11.224620 4.000000
30.799598 12.347083 4.000000
30.799598 13.469545 4.000000
30.799598 14.592007 4.000000
30.799598 15.714469 4.000000
30.799598 16.836931 4.000000
30.799598 17.959393 4.000000
30.799598 19.081855 4.000000
30.799598 20.204317 4.000000
30.799598 21.326779 4.000000
30.799598 22.449241 4.000000
30.799598 23.571703 4.000000
30.799598 24.694165 4.000000
30.799598 25.816621 4.000000
30.800036 26.960013 4.000000
31.391390 28.517124 4.000000
31.261071 1.569933 4.000000
31.853484 2.265658 4.000000
31.853911 3.367381 4.000000
31.853911 4.489848 4.000000
31.853911 5.612310 4.000000
31.853911 6.734772 4.000000
31.853911 7.857234 4.000000
31.853911 8.979696 4.000000
31.853911 10.102158 4.000000
31.853911 11.224620 4.000000
31.853911 12.347083 4.000000
31.853911 13.469545 4.000000
31.853911 14.592007 4.000000
31.853911 15.714469 4.000000
31.853911 16.836931 4.000000
31.853911 17.959393 4.000000
31.853911 19.081855 4.000000
31.853911 20.204317 4.000000
31.853911 21.326779 4.000000
31.853911 22.449241 4.000000
31.853911 23.571703 4.000000
31.853911 24.694165 4.000000
31.853911 25.816633 4.000000
31.853484 26.918355 4.000000
31.261071 27.614080 4.000000
32.282750 0.718379 4.000000
32.126381 2.233554 4.000000
32.126303 3.367389 4.000000
32.126303 4.489848 4.000000
32.126303 5.612310 4.000000
32.126303 6.734772 4.000000
32.126303 7.857234 4.000000
32.126303 8.979696 4.000000
32.126303 10.102158 4.000000
32.126303 11.224620 4.000000
32.126303 12.347083 4.000000
32.126303 13.469545 4.000000
32.126303 14.592007 4.000000
32.126303 15.714469 4.000000
32.126303 16.836931 4.000000
32.126303 17.959393 4.000000
32.126303 19.081855 4.000000
32.126303 20.204317 4.000000
32.126303 21.326779 4.000000
32.126303 22.449241 4.000000
32.126303 23.571703 4.000000
32.126303 24.694165 4.000000
32.126303 25.816625 4.000000
32.126381 26.950460 4.000000
32.282750 28.465635 4.000000
33.014462 1.428381 4.000000
33.180454 2.253784 4.000000
33.180563 3.367384 4.000000
33.180563 4.489848 4.000000
33.180563 5.612310 4.000000
33.180563 6.734772 4.000000
33.180563 7.857234 4.000000
33.180563 8.979696 4.000000
33.180563 10.102158 4.000000
33.180563 11.224620 4.000000
33.180563 12.347083 4.000000
33.180563 13.469545 4.000000
33.180563 14.592007 4.000000
33.180563 15.714469 4.000000
33.180563 16.836931 4.000000
33.180563 17.959393 4.000000
33.180563 19.081855 4.000000
33.180563 20.204317 4.000000
33.180563 21.326779 4.000000
33.180563 22.449241 4.000000
33.180563 23.571703 4.000000
33.180563 24.694165 4.000000
33.180563 25.816629 4.000000
33.180454 26.930229 4.000000
33.014462 27.755632 4.000000
33.455310 1.067535 4.000000
33.452923 2.243486 4.000000
33.452926 3.367386 4.000000
33.452926 4.489848 4.000000
33.452926 5.612310 4.000000
33.452926 6.734772 4.000000
33.452926 7.857234 4.000000
33.452926 8.979696 4.000000
33.452926 10.102158 4.000000
33.452926 11.224620 4.000000
33.452926 12.347083 4.000000
33.452926 13.469545 4.000000
33.452926 14.592007 4.000000
33.452926 15.714469 4.000000
33.452926 16.836931 4.000000
33.452926 17.959393 4.000000
33.452926 19.081855 4.000000
33.452926 20.204317 4.000000
33.452926 21.326779 4.000000
33.452926 22.449241 4.000000
33.452926 23.571703 4.000000
33.452926 24.694165 4.000000
33.452926 25.816627 4.000000
33.452923 26.940527 4.000000
33.455310 28.116478 4.000000
34.504283 1.161068 4.000000
34.506704 2.245909 4.000000
34.506706 3.367386 4.000000
34.506706 4.489848 4.000000
34.506706 5.612310 4.000000
34.506706 6.734772 4.000000
34.506706 7.857234 4.000000
34.506706 8.979696 4.000000
34.506706 10.102158 4.000000
34.506706 11.224620 4.000000
34.506706 12.347083 4.000000
34.506706 13.469545 4.000000
34.506706 14.592007 4.000000
34.506706 15.714469 4.000000
34.506706 16.836931 4.000000
34.506706 17.959393 4.000000
34.506706 19.081855 4.000000
34.506706 20.204317 4.000000
34.506706 21.326779 4.000000
34.506706 22.449241 4.000000
34.506706 23.571703 4.000000
34.506706 24.694165 4.000000
34.506706 25.816627 4.000000
34.506704 26.938104 4.000000
34.504283 28.022945 4.000000
34.779434 1.123251 4.000000
34.779486 2.244929 4.000000
34.779486 3.367386 4.000000
34.779486 4.489848 4.000000
34.779486 5.612310 4.000000
34.779486 6.734772 4.000000
34.779486 7.857234 4.000000
34.779486 8.979696 4.000000
34.779486 10.102158 4.000000
34.779486 11.224620 4.000000
34.779486 12.347083 4.000000
34.779486 13.469545 4.000000
34.779486 14.592007 4.000000
34.779486 15.714469 4.000000
34.779486 16.836931 4.000000
34.779486 17.959393 4.000000
34.779486 19.081855 4.000000
34.779486 20.204317 4.000000
34.779486 21.326779 4.000000
34.779486 22.449241 4.000000
34.779486 23.571703 4.000000
34.779486 24.694165 4.000000
34.779486 25.816627 4.000000
34.779486 26.939084 4.000000
34.779434 28.060763 4.000000
35.902158 1.123241 4.000000
35.902158 2.244929 4.000000
35.902158 3.367386 4.000000
35.902158 4.489848 4.000000
35.902158 5.612310 4.000000
35.902158 6.734772 4.000000
35.902158 7.857234 4.000000
35.902158 8.979696 4.000000
35.902158 10.102158 4.000000
35.902158 11.224620 4.000000
35.902158 12.347083 4.000000
35.902158 13.469545 4.000000
35.902158 14.592007 4.000000
35.902158 15.714469 4.000000
35.902158 16.836931 4.000000
35.902158 17.959393 4.000000
35.902158 19.081855 4.000000
35.902158 20.204317 4.000000
35.902158 21.326779 4.000000
35.902158 22.449241 4.000000
35.902158 23.571703 4.000000
35.902158 24.694165 4.000000
35.902158 25.816627 4.000000
35.902158 26.939084 4.000000
35.902158 28.060772 4.000000
37.024620 1.123241 4.000000
37.024620 2.244929 4.000000
37.024620 3.367386 4.000000
37.024620 4.489848 4.000000
37.024620 5.612310 4.000000
37.024620 6.734772 4.000000
37.024620 7.857234 4.000000
37.024620 8.979696 4.000000
37.024620 10.102158 4.000000
37.024620 11.224620 4.000000
37.024620 12.347083 4.000000
37.024620 13.469545 4.000000
37.024620 14.592007 4.000000
37.024620 15.714469 4.000000
37.024620 16.836931 4.000000
37.024620 17.959393 4.000000
37.024620 19.081855 4.000000
37.024620 20.204317 4.000000
37.024620 21.326779 4.000000
37.024620 22.449241 4.000000
37.024620 23.571703 4.000000
37.024620 24.694165 4.000000
37.024620 25.816627 4.000000
37.024620 26.939084 4.000000
37.024620 28.060772 4.000000
38.147083 1.123241 4.000000
38.147083 2.244929 4.000000
38.147083 3.367386 4.000000
38.147083 4.489848 4.000000
38.147083 5.612310 4.000000
38.147083 6.734772 4.000000
38.147083 7.857234 4.000000
38.147083 8.979696 4.000000
38.147083 10.102158 4.000000
38.147083 11.224620 4.000000
38.147083 12.347083 4.000000
38.147083 13.469545 4.000000
38.147083 14.592007 4.000000
38.147083 15.714469 4.000000
38.147083 16.836931 4.000000
38.147083 17.959393 4.000000
38.147083 19.081855 4.000000
38.147083 20.204317 4.000000
38.147083 21.326779 4.000000
38.147083 22.449241 4.000000
38.147083 23.571703 4.000000
38.147083 24.694165 4.000000
38.147083 25.816627 4.000000
38.147083 26.939084 4.000000
38.147083 28.060772 4.000000
39.269545 1.123241 4.000000
39.269545 2.244929 4.000000
39.269545 3.367386 4.000000
39.269545 4.489848 4.000000
39.269545 5.612310 4.000000
39.269545 6.734772 4.000000
39.269545 7.857234 4.000000
39.269545 8.979696 4.000000
39.269545 10.102158 4.000000
39.269545 11.224620 4.000000
39.269545 12.347083 4.000000
39.269545 13.469545 4.000000
39.269545 14.592007 4.000000
39.269545 15.714469 4.000000
39.269545 16.836931 4.000000
39.269545 17.959393 4.000000
39.269545 19.081855 4.000000
39.269545 20.204317 4.000000
39.269545 21.326779 4.000000
39.269545 22.449241 4.000000
39.269545 23.571703 4.000000
39.269545 24.694165 4.000000
39.269545 25.816627 4.000000
39.269545 26.939084 4.000000
39.269545 28.060772 4.000000
40.392007 1.123241 4.000000
40.392007 2.244929 4.000000
40.392007 3.367386 4.000000
40.392007 4.489848 4.000000
40.392007 5.612310 4.000000
40.392007 6.734772 4.000000
40.392007 7.857234 4.000000
40.392007 8.979696 4.000000
40.392007 10.102158 4.000000
40.392007 11.224620 4.000000
40.392007 12.347083 4.000000
40.392007 13.469545 4.000000
40.392007 14.592007 4.000000
40.392007 15.714469 4.000000
40.392007 16.836931 4.000000
40.392007 17.959393 4.000000
40.392007 19.081855 4.000000
40.392007 20.204317 4.000000
40.392007 21.326779 4.000000
40.392007 22.449241 4.000000
40.392007 23.571703 4.000000
40.392007 24.694165 4.000000
40.392007 25.816627 4.000000
40.392007 26.939084 4.000000
40.392007 28.060772 4.000000
41.514469 1.123241 4.000000
41.514469 2.244929 4.000000
41.514469 3.367386 4.000000
41.514469 4.489848 4.000000
41.514469 5.612310 4.000000
41.514469 6.734772 4.000000
41.514469 7.857234 4.000000
41.514469 8.979696 4.000000
41.514469 10.102158 4.000000
41.514469 11.224620 4.000000
41.514469 12.347083 4.000000
41.514469 13.469545 4.000000
41.514469 14.592007 4.000000
41.514469 15.714469 4.000000
41.514469 16.836931 4.000000
41.514469 17.959393 4.000000
41.514469 19.081855 4.000000
41.514469 20.204317 4.000000
41.514469 21.326779 4.000000
41.514469 22.449241 4.000000
[...]
POINT_DATA 1250
SCALARS m double
LOOKUP_TABLE default
1.000000
1.000000
1.000000
1.000000
1.000000
1.000000
1.000000
1.000000
1.000000
1.000000
1.000000
1.000000
1.000000
1.000000
1.000000
1.000000
1.000000
1.000000
1.000000
1.000000
1.000000
1.000000
1.000000
1.000000
1.000000
1.000000
1.000000
1.000000
1.000000
1.000000
1.000000
1.000000
1.000000
1.000000
1.000000
1.000000
1.000000
1.000000
1.000000
1.000000
1.000000
1.000000
1.000000
1.000000
1.000000
1.000000
1.000000
1.000000
1.000000
1.000000
1.000000
1.000000
1.000000
1.000000
1.000000
1.000000
1.000000
1.000000
1.000000
1.000000
1.000000
1.000000
1.000000
1.000000
1.000000
1.000000
1.000000
1.000000
1.000000
1.000000
1.000000
1.000000
1.000000
1.000000
1.000000
1.000000
1.000000
1.000000
1.000000
1.000000
1.000000
1.000000
1.000000
1.000000
1.000000
1.000000
1.000000
1.000000
1.000000
1.000000
1.000000
1.000000
1.000000
1.000000
1.000000
1.000000
1.000000
1.000000
1.000000
1.000000
1.000000
1.000000
1.000000
1.000000
1.000000
1.000000
1.000000
1.000000
1.000000
1.000000
1.000000
1.000000
1.000000
1.000000
1.000000
1.000000
1.000000
1.000000
1.000000
1.000000
1.000000
1.000000
1.000000
1.000000
1.000000
1.000000
1.000000
1.000000
1.000000
1.000000
1.000000
1.000000
1.000000
1.000000
1.000000
1.000000
1.000000
1.000000
1.000000
1.000000
1.000000
1.000000
1.000000
1.000000
1.000000
1.000000
1.000000
1.000000
1.000000
1.000000
1.000000
1.000000
1.000000
1.000000
1.000000
1.000000
1.000000
1.000000
1.000000
1.000000
1.000000
1.000000
1.000000
1.000000
1.000000
1.000000
1.000000
1.000000
1.000000
1.000000
1.000000
1.000000
1.000000
1.000000
1.000000
1.000000
1.000000
1.000000
1.000000
1.000000
1.000000
1.000000
1.000000
1.000000
1.000000
1.000000
1.000000
1.000000
1.000000
1.000000
1.000000
1.000000
1.000000
1.000000
1.000000
1.000000
1.000000
1.000000
1.000000
1.000000
1.000000
1.000000
1.000000
1.000000
1.000000
1.000000
1.000000
1.000000
1.000000
1.000000
1.000000
1.000000
1.000000
1.000000
1.000000
1.000000
1.000000
1.000000
1.000000
1.000000
1.000000
1.000000
1.000000
1.000000
1.000000
1.000000
1.000000
1.000000
1.000000
1.000000
1.000000
1.000000
1.000000
1.000000
1.000000
1.000000
1.000000
1.000000
1.000000
1.000000
1.000000
1.000000
1.000000
1.000000
1.000000
1.000000
1.000000
1.000000
1.000000
1.000000
1.000000
1.000000
1.000000
1.000000
1.000000
1.000000
1.000000
1.000000
1.000000
1.000000
1.000000
1.000000
1.000000
1.000000
1.000000
1.000000
1.000000
1.000000
1.000000
1.000000
1.000000
1.000000
1.000000
1.000000
1.000000
1.000000
1.000000
1.000000
1.000000
1.000000
1.000000
1.000000
1.000000
1.000000
1.000000
1.000000
1.000000
1.000000
1.000000
1.000000
1.000000
1.000000
1.000000
1.000000
1.000000
1.000000
1.000000
1.000000
1.000000
1.000000
1.000000
1.000000
1.000000
1.000000
1.000000
1.000000
1.000000
1.000000
1.000000
1.000000
1.000000
1.000000
1.000000
1.000000
1.000000
1.000000
1.000000
1.000000
1.000000
1.000000
1.000000
1.000000
1.000000
1.000000
1.000000
1.000000
1.000000
1.000000
1.000000
1.000000
1.000000
1.000000
1.000000
1.000000
1.000000
1.000000
1.000000
1.000000
1.000000
1.000000
1.000000
1.000000
1.000000
1.000000
1.000000
1.000000
1.000000
1.000000
1.000000
1.000000
1.000000
1.000000
1.000000
1.000000
1.000000
1.000000
1.000000
1.000000
1.000000
1.000000
1.000000
1.000000
1.000000
1.000000
1.000000
1.000000
1.000000
1.000000
1.000000
1.000000
1.000000
1.000000
1.000000
1.000000
1.000000
1.000000
1.000000
1.000000
1.000000
1.000000
1.000000
1.000000
1.000000
1.000000
1.000000
1.000000
1.000000
1.000000
1.000000
1.000000
1.000000
1.000000
1.000000
1.000000
1.000000
1.000000
1.000000
1.000000
1.000000
1.000000
1.000000
1.000000
1.000000
1.000000
1.000000
1.000000
1.000000
1.000000
1.000000
1.000000
1.000000
1.000000
1.000000
1.000000
1.000000
1.000000
1.000000
1.000000
1.000000
1.000000
1.000000
1.000000
1.000000
1.000000
1.000000
1.000000
1.000000
1.000000
1.000000
1.000000
1.000000
1.000000
1.000000
1.000000
1.000000
1.000000
1.000000
1.000000
1.000000
1.000000
1.000000
1.000000
1.000000
1.000000
1.000000
1.000000
1.000000
1.000000
1.000000
1.000000
1.000000
1.000000
1.000000
1.000000
1.000000
1.000000
1.000000
1.000000
1.000000
1.000000
1.000000
1.000000
1.000000
1.000000
1.000000
1.000000
1.000000
1.000000
1.000000
1.000000
1.000000
1.000000
1.000000
1.000000
1.000000
1.000000
1.000000
1.000000
1.000000
1.000000
1.000000
1.000000
1.000000
1.000000
1.000000
1.000000
1.000000
1.000000
1.000000
1.000000
1.000000
1.000000
1.000000
1.000000
1.000000
1.000000
1.000000
1.000000
1.000000
1.000000
1.000000
1.000000
1.000000
1.000000
1.000000
1.000000
1.000000
1.000000
1.000000
1.000000
1.000000
1.000000
1.000000
1.000000
1.000000
1.000000
1.000000
1.000000
1.000000
1.000000
1.000000
1.000000
1.000000
1.000000
1.000000
1.000000
1.000000
1.000000
1.000000
1.000000
1.000000
1.000000
1.000000
1.000000
1.000000
1.000000
1.000000
1.000000
1.000000
1.000000
1.000000
1.000000
1.000000
1.000000
1.000000
1.000000
1.000000
1.000000
1.000000
1.000000
1.000000
1.000000
1.000000
1.000000
1.000000
1.000000
1.000000
1.000000
1.000000
1.000000
1.000000
1.000000
1.000000
1.000000
1.000000
1.000000
1.000000
1.000000
1.000000
1.000000
1.000000
1.000000
1.000000
1.000000
1.000000
1.000000
1.000000
1.000000
1.000000
1.000000
1.000000
1.000000
1.000000
1.000000
1.000000
1.000000
1.000000
1.000000
1.000000
1.000000
1.000000
1.000000
1.000000
1.000000
1.000000
1.000000
1.000000
1.000000
1.000000
1.000000
1.000000
1.000000
1.000000
1.000000
1.000000
1.000000
1.000000
1.000000
1.000000
1.000000
1.000000
1.000000
1.000000
1.000000
1.000000
1.000000
1.000000
1.000000
1.000000
1.000000
1.000000
1.000000
1.000000
1.000000
1.000000
1.000000
1.000000
1.000000
1.000000
1.000000
1.000000
1.000000
1.000000
1.000000
1.000000
1.000000
1.000000
1.000000
1.000000
1.000000
1.000000
1.000000
1.000000
1.000000
1.000000
1.000000
1.000000
1.000000
1.000000
1.000000
1.000000
1.000000
1.000000
1.000000
1.000000
1.000000
1.000000
1.000000
1.000000
1.000000
1.000000
1.000000
1.000000
1.000000
1.000000
1.000000
1.000000
1.000000
1.000000
1.000000
1.000000
1.000000
1.000000
1.000000
1.000000
1.000000
1.000000
1.000000
1.000000
1.000000
1.000000
1.000000
1.000000
1.000000
1.000000
1.000000
1.000000
1.000000
1.000000
1.000000
1.000000
1.000000
1.000000
1.000000
1.000000
1.000000
1.000000
1.000000
1.000000
1.000000
1.000000
1.000000
1.000000
1.000000
1.000000
1.000000
1.000000
1.000000
1.000000
1.000000
1.000000
1.000000
1.000000
1.000000
1.000000
1.000000
1.000000
1.000000
1.000000
1.000000
1.000000
1.000000
1.000000
1.000000
1.000000
1.000000
1.000000
1.000000
1.000000
1.000000
1.000000
1.000000
1.000000
1.000000
1.000000
1.000000
1.000000
1.000000
1.000000
1.000000
1.000000
1.000000
1.000000
1.000000
1.000000
1.000000
1.000000
1.000000
1.000000
1.000000
1.000000
1.000000
1.000000
1.000000
1.000000
1.000000
1.000000
1.000000
1.000000
1.000000
1.000000
1.000000
1.000000
1.000000
1.000000
1.000000
1.000000
1.000000
1.000000
1.000000
1.000000
1.000000
1.000000
1.000000
1.000000
1.000000
1.000000
1.000000
1.000000
1.000000
1.000000
1.000000
1.000000
1.000000
1.000000
1.000000
1.000000
1.000000
1.000000
1.000000
1.000000
1.000000
1.000000
1.000000
1.000000
1.000000
1.000000
1.000000
1.000000
1.000000
1.000000
1.000000
1.000000
1.000000
1.000000
1.000000
1.000000
1.000000
1.000000
1.000000
1.000000
1.000000
1.000000
1.000000
1.000000
1.000000
1.000000
1.000000
1.000000
1.000000
1.000000
1.000000
1.000000
1.000000
1.000000
1.000000
1.000000
1.000000
1.000000
1.000000
1.000000
1.000000
1.000000
1.000000
1.000000
1.000000
1.000000
1.000000
1.000000
1.000000
1.000000
1.000000
1.000000
1.000000
1.000000
1.000000
1.000000
1.000000
1.000000
1.000000
1.000000
1.000000
1.000000
1.000000
1.000000
1.000000
1.000000
1.000000
1.000000
1.000000
1.000000
1.000000
1.000000
1.000000
1.000000
1.000000
1.000000
1.000000
1.000000
1.000000
1.000000
1.000000
1.000000
1.000000
1.000000
1.000000
1.000000
1.000000
1.000000
1.000000
1.000000
1.000000
1.000000
1.000000
1.000000
1.000000
1.000000
1.000000
1.000000
1.000000
1.000000
1.000000
1.000000
1.000000
1.000000
1.000000
1.000000
1.000000
1.000000
1.000000
1.000000
1.000000
1.000000
1.000000
1.000000
1.000000
1.000000
1.000000
1.000000
1.000000
1.000000
1.000000
1.000000
1.000000
1.000000
1.000000
1.000000
1.000000
1.000000
1.000000
1.000000
1.000000
1.000000
1.000000
1.000000
1.000000
1.000000
1.000000
1.000000
1.000000
1.000000
1.000000
1.000000
1.000000
1.000000
1.000000
1.000000
1.000000
1.000000
1.000000
1.000000
1.000000
1.000000
1.000000
1.000000
1.000000
1.000000
1.000000
1.000000
1.000000
1.000000
1.000000
1.000000
1.000000
1.000000
1.000000
1.000000
1.000000
1.000000
1.000000
1.000000
1.000000
1.000000
1.000000
1.000000
1.000000
1.000000
1.000000
1.000000
1.000000
1.000000
1.000000
1.000000
1.000000
1.000000
1.000000
1.000000
1.000000
1.000000
1.000000
1.000000
1.000000
1.000000
1.000000
1.000000
1.000000
1.000000
1.000000
1.000000
1.000000
1.000000
1.000000
1.000000
1.000000
1.000000
1.000000
1.000000
1.000000
1.000000
1.000000
1.000000
1.000000
1.000000
1.000000
1.000000
1.000000
1.000000
1.000000
1.000000
1.000000
1.000000
1.000000
1.000000
1.000000
1.000000
1.000000
1.000000
1.000000
1.000000
1.000000
1.000000
1.000000
1.000000
1.000000
1.000000
1.000000
1.000000
1.000000
1.000000
1.000000
1.000000
1.000000
1.000000
1.000000
1.000000
1.000000
1.000000
1.000000
1.000000
1.000000
1.000000
1.000000
1.000000
1.000000
1.000000
1.000000
1.000000
1.000000
1.000000
1.000000
1.000000
1.000000
1.000000
1.000000
1.000000
1.000000
1.000000
1.000000
1.000000
1.000000
1.000000
1.000000
1.000000
1.000000
1.000000
1.000000
1.000000
1.000000
1.000000
1.000000
1.000000
1.000000
1.000000
1.000000
1.000000
1.000000
1.000000
1.000000
1.000000
1.000000
1.000000
1.000000
1.000000
1.000000
1.000000
1.000000
1.000000
1.000000
1.000000
1.000000
1.000000
1.000000
1.000000
1.000000
1.000000
1.000000
1.000000
1.000000
1.000000
1.000000
1.000000
1.000000
1.000000
1.000000
1.000000
1.000000
1.000000
1.000000
1.000000
1.000000
1.000000
1.000000
1.000000
1.000000
1.000000
1.000000
1.000000
1.000000
1.000000
1.000000
1.000000
1.000000
1.000000
1.000000
1.000000
1.000000
1.000000
1.000000
1.000000
1.000000
1.000000
1.000000
1.000000
1.000000
1.000000
1.000000
1.000000
1.000000
1.000000
1.000000
1.000000
1.000000
1.000000
1.000000
1.000000
1.000000
1.000000
1.000000
1.000000
1.000000
1.000000
1.000000
1.000000
1.000000
1.000000
1.000000
1.000000
1.000000
1.000000
1.000000
1.000000
1.000000
1.000000
1.000000
1.000000
1.000000
1.000000
1.000000
1.000000
1.000000
1.000000
1.000000
1.000000
1.000000
1.000000
1.000000
1.000000
1.000000
1.000000
1.000000
1.000000
1.000000
1.000000
1.000000
1.000000
1.000000
1.000000
1.000000
1.000000
1.000000
1.000000
1.000000
1.000000
1.000000
1.000000
1.000000
1.000000
1.000000
1.000000
1.000000
1.000000
1.000000
1.000000
1.000000
1.000000
1.000000
1.000000
1.000000
1.000000
1.000000
1.000000
1.000000
1.000000
1.000000
1.000000
1.000000
1.000000
1.000000
1.000000
1.000000
1.000000
1.000000
1.000000
1.000000
1.000000
1.000000
1.000000
1.000000
1.000000
1.000000
1.000000
1.000000
1.000000
1.000000
1.000000
1.000000
1.000000
1.000000
1.000000
1.000000
1.000000
1.000000
1.000000
1.000000
1.000000
1.000000
1.000000
1.000000
1.000000
1.000000
VECTORS v double
9.885202 1.428480 0.000000
9.716310 0.060714 0.000000
9.684489 -0.000021 0.000000
9.684490 0.000000 0.000000
9.684490 -0.000000 0.000000
9.684490 0.000000 0.000000
9.684490 -0.000000 0.000000
9.684490 -0.000000 0.000000
9.684490 0.000000 0.000000
9.684490 -0.000000 0.000000
9.684490 0.000000 0.000000
9.684490 0.000000 0.000000
9.684490 -0.000000 0.000000
9.684490 -0.000000 0.000000
9.684490 -0.000000 0.000000
9.684490 0.000000 0.000000
9.684490 -0.000000 0.000000
9.684490 -0.000000 0.000000
9.684490 0.000000 0.000000
9.684490 -0.000000 0.000000
9.684490 0.000000 0.000000
9.684490 -0.000000 0.000000
9.684489 0.000021 0.000000
9.716310 -0.060714 0.000000
9.885202 -1.428480 0.000000
3.552059 -9.409002 0.000000
-9.704846 -0.470598 0.000000
-9.683352 0.000138 0.000000
-9.683353 0.000000 0.000000
-9.683353 -0.000000 0.000000
-9.683353 0.000000 0.000000
-9.683353 -0.000000 0.000000
-9.683353 -0.000000 0.000000
-9.683353 0.000000 0.000000
-9.683353 -0.000000 0.000000
-9.683353 0.000000 0.000000
-9.683353 0.000000 0.000000
-9.683353 -0.000000 0.000000
-9.683353 -0.000000 0.000000
-9.683353 -0.000000 0.000000
-9.683353 0.000000 0.000000
-9.683353 -0.000000 0.000000
-9.683353 -0.000000 0.000000
-9.683353 0.000000 0.000000
-9.683353 0.000000 0.000000
-9.683353 0.000000 0.000000
-9.683353 -0.000000 0.000000
-9.683352 -0.000138 0.000000
-9.704846 0.470597 0.000000
3.552059 9.409002 0.000000
-3.562100 9.323292 0.000000
9.724084 0.474065 0.000000
9.684317 -0.000140 0.000000
9.684317 -0.000000 0.000000
9.684317 0.000000 0.000000
9.684317 0.000000 0.000000
9.684317 -0.000000 0.000000
9.684317 -0.000000 0.000000
9.684317 0.000000 0.000000
9.684317 -0.000000 0.000000
9.684317 0.000000 0.000000
9.684317 0.000000 0.000000
9.684317 -0.000000 0.000000
9.684317 -0.000000 0.000000
9.684317 -0.000000 0.000000
9.684317 0.000000 0.000000
9.684317 -0.000000 0.000000
9.684317 -0.000000 0.000000
9.684317 0.000000 0.000000
9.684317 0.000000 0.000000
9.684317 -0.000000 0.000000
9.684317 0.000000 0.000000
9.684317 0.000140 0.000000
9.724084 -0.474065 0.000000
-3.562100 -9.323292 0.000000
-6.527492 -8.150198 0.000000
-9.728817 -0.261961 0.000000
-9.681223 0.000061 0.000000
-9.681221 0.000000 0.000000
-9.681221 0.000000 0.000000
-9.681221 0.000000 0.000000
-9.681221 -0.000000 0.000000
-9.681221 -0.000000 0.000000
-9.681221 0.000000 0.000000
-9.681221 -0.000000 0.000000
-9.681221 0.000000 0.000000
-9.681221 0.000000 0.000000
-9.681221 -0.000000 0.000000
-9.681221 -0.000000 0.000000
-9.681221 -0.000000 0.000000
-9.681221 0.000000 0.000000
-9.681221 -0.000000 0.000000
-9.681221 -0.000000 0.000000
-9.681221 0.000000 0.000000
-9.681221 -0.000000 0.000000
-9.681221 -0.000000 0.000000
-9.681221 -0.000000 0.000000
-9.681223 -0.000061 0.000000
-9.728817 0.261961 0.000000
-6.527492 8.150198 0.000000
6.432661 7.035152 0.000000
9.688196 0.212627 0.000000
9.684008 -0.000050 0.000000
9.684008 -0.000000 0.000000
9.684008 -0.000000 0.000000
9.684008 -0.000000 0.000000
9.684008 -0.000000 0.000000
9.684008 -0.000000 0.000000
9.684008 0.000000 0.000000
9.684008 -0.000000 0.000000
9.684008 -0.000000 0.000000
9.684008 0.000000 0.000000
9.684008 -0.000000 0.000000
9.684008 -0.000000 0.000000
9.684008 -0.000000 0.000000
9.684008 0.000000 0.000000
9.684008 -0.000000 0.000000
9.684008 -0.000000 0.000000
9.684008 0.000000 0.000000
9.684008 0.000000 0.000000
9.684008 -0.000000 0.000000
9.684008 0.000000 0.000000
9.684008 0.000050 0.000000
9.688196 -0.212627 0.000000
6.432661 -7.035152 0.000000
-9.957943 -1.090198 0.000000
-9.686537 -0.040553 0.000000
-9.679811 0.000004 0.000000
-9.679810 -0.000000 0.000000
-9.679810 0.000000 0.000000
-9.679810 0.000000 0.000000
-9.679810 -0.000000 0.000000
-9.679810 -0.000000 0.000000
-9.679810 0.000000 0.000000
-9.679810 -0.000000 0.000000
-9.679810 -0.000000 0.000000
-9.679810 0.000000 0.000000
-9.679810 -0.000000 0.000000
-9.679810 -0.000000 0.000000
-9.679810 -0.000000 0.000000
-9.679810 0.000000 0.000000
-9.679810 -0.000000 0.000000
-9.679810 -0.000000 0.000000
-9.679810 0.000000 0.000000
-9.679810 -0.000000 0.000000
-9.679810 -0.000000 0.000000
-9.679810 0.000000 0.000000
-9.679811 -0.000004 0.000000
-9.686537 0.040553 0.000000
-9.957943 1.090198 0.000000
9.734630 0.930027 0.000000
9.691875 0.024318 0.000000
9.691831 -0.000005 0.000000
9.691831 -0.000000 0.000000
9.691831 0.000000 0.000000
9.691831 0.000000 0.000000
9.691831 -0.000000 0.000000
9.691831 -0.000000 0.000000
9.691831 0.000000 0.000000
9.691831 -0.000000 0.000000
9.691831 -0.000000 0.000000
9.691831 0.000000 0.000000
9.691831 -0.000000 0.000000
9.691831 -0.000000 0.000000
9.691831 -0.000000 0.000000
9.691831 0.000000 0.000000
9.691831 -0.000000 0.000000
9.691831 -0.000000 0.000000
9.691831 0.000000 0.000000
9.691831 0.000000 0.000000
9.691831 -0.000000 0.000000
9.691831 0.000000 0.000000
9.691831 0.000005 0.000000
9.691875 -0.024318 0.000000
9.734630 -0.930027 0.000000
-9.783229 -0.027422 0.000000
-9.688858 -0.001132 0.000000
-9.688778 -0.000000 0.000000
-9.688778 -0.000000 0.000000
-9.688778 0.000000 0.000000
-9.688778 0.000000 0.000000
-9.688778 -0.000000 0.000000
-9.688778 -0.000000 0.000000
-9.688778 0.000000 0.000000
-9.688778 -0.000000 0.000000
-9.688778 -0.000000 0.000000
-9.688778 0.000000 0.000000
-9.688778 -0.000000 0.000000
-9.688778 -0.000000 0.000000
-9.688778 -0.000000 0.000000
-9.688778 0.000000 0.000000
-9.688778 -0.000000 0.000000
-9.688778 -0.000000 0.000000
-9.688778 0.000000 0.000000
-9.688778 0.000000 0.000000
-9.688778 -0.000000 0.000000
-9.688778 0.000000 0.000000
-9.688778 0.000000 0.000000
-9.688858 0.001132 0.000000
-9.783229 0.027422 0.000000
-10.000021 0.003714 0.000000
-10.000025 0.000020 0.000000
-10.000025 -0.000000 0.000000
-10.000025 -0.000000 0.000000
-10.000025 0.000000 0.000000
-10.000025 0.000000 0.000000
-10.000025 -0.000000 0.000000
-10.000025 -0.000000 0.000000
-10.000025 0.000000 0.000000
-10.000025 -0.000000 0.000000
-10.000025 0.000000 0.000000
-10.000025 0.000000 0.000000
-10.000025 -0.000000 0.000000
-10.000025 -0.000000 0.000000
-10.000025 -0.000000 0.000000
-10.000025 0.000000 0.000000
-10.000025 -0.000000 0.000000
-10.000025 -0.000000 0.000000
-10.000025 0.000000 0.000000
-10.000025 0.000000 0.000000
-10.000025 -0.000000 0.000000
-10.000025 0.000000 0.000000
-10.000025 0.000000 0.000000
-10.000025 -0.000020 0.000000
-10.000021 -0.003714 0.000000
-10.000000 0.003711 0.000000
-10.000000 0.000020 0.000000
-10.000000 -0.000000 0.000000
-10.000000 -0.000000 0.000000
-10.000000 0.000000 0.000000
-10.000000 0.000000 0.000000
-10.000000 -0.000000 0.000000
-10.000000 -0.000000 0.000000
-10.000000 0.000000 0.000000
-10.000000 -0.000000 0.000000
-10.000000 -0.000000 0.000000
-10.000000 0.000000 0.000000
-10.000000 -0.000000 0.000000
-10.000000 -0.000000 0.000000
-10.000000 -0.000000 0.000000
-10.000000 0.000000 0.000000
-10.000000 -0.000000 0.000000
-10.000000 -0.000000 0.000000
-10.000000 0.000000 0.000000
-10.000000 0.000000 0.000000
-10.000000 -0.000000 0.000000
-10.000000 0.000000 0.000000
-10.000000 0.000000 0.000000
-10.000000 -0.000020 0.000000
-10.000000 -0.003711 0.000000
-10.000000 0.003711 0.000000
-10.000000 0.000020 0.000000
-10.000000 -0.000000 0.000000
-10.000000 -0.000000 0.000000
-10.000000 0.000000 0.000000
-10.000000 0.000000 0.000000
-10.000000 -0.000000 0.000000
-10.000000 -0.000000 0.000000
-10.000000 0.000000 0.000000
-10.000000 -0.000000 0.000000
-10.000000 -0.000000 0.000000
-10.000000 0.000000 0.000000
-10.000000 -0.000000 0.000000
-10.000000 -0.000000 0.000000
-10.000000 -0.000000 0.000000
-10.000000 0.000000 0.000000
-10.000000 -0.000000 0.000000
-10.000000 -0.000000 0.000000
-10.000000 0.000000 0.000000
-10.000000 0.000000 0.000000
-10.000000 -0.000000 0.000000
-10.000000 0.000000 0.000000
-10.000000 0.000000 0.000000
-10.000000 -0.000020 0.000000
-10.000000 -0.003711 0.000000
-10.000000 0.003711 0.000000
-10.000000 0.000020 0.000000
-10.000000 -0.000000 0.000000
-10.000000 -0.000000 0.000000
-10.000000 0.000000 0.000000
-10.000000 0.000000 0.000000
-10.000000 -0.000000 0.000000
-10.000000 -0.000000 0.000000
-10.000000 0.000000 0.000000
-10.000000 -0.000000 0.000000
-10.000000 0.000000 0.000000
-10.000000 0.000000 0.000000
-10.000000 -0.000000 0.000000
-10.000000 -0.000000 0.000000
-10.000000 -0.000000 0.000000
-10.000000 0.000000 0.000000
-10.000000 -0.000000 0.000000
-10.000000 -0.000000 0.000000
-10.000000 0.000000 0.000000
-10.000000 0.000000 0.000000
-10.000000 -0.000000 0.000000
-10.000000 0.000000 0.000000
-10.000000 0.000000 0.000000
-10.000000 -0.000020 0.000000
-10.000000 -0.003711 0.000000
-10.000000 0.003711 0.000000
-10.000000 0.000020 0.000000
-10.000000 -0.000000 0.000000