# vtk DataFile Version 4.0
hesp visualization file
ASCII
DATASET UNSTRUCTURED_GRID
POINTS 1250 double
30.140529 1.122680 4.000000
30.140526 2.244926 4.000000
30.140526 3.367386 4.000000
30.140526 4.489848 4.000000
30.140526 5.612310 4.000000
30.140526 6.734772 4.000000
30.140526 7.857234 4.000000
30.140526 8.979696 4.000000
30.140526 10.102158 4.000000
30.140526 11.224620 4.000000
30.140526 12.347083 4.000000
30.140526 13.469545 4.000000
30.140526 14.592007 4.000000
30.140526 15.714469 4.000000
30.140526 16.836931 4.000000
30.140526 17.959393 4.000000
30.140526 19.081855 4.000000
30.140526 20.204317 4.000000
30.140526 21.326779 4.000000
30.140526 22.449241 4.000000
30.140526 23.571703 4.000000
30.140526 24.694165 4.000000
30.140526 25.816627 4.000000
30.140526 26.939087 4.000000
30.140529 28.061333 4.000000
31.185916 1.122602 4.000000
31.185915 2.244925 4.000000
31.185915 3.367386 4.000000
31.185915 4.489848 4.000000
31.185915 5.612310 4.000000
31.185915 6.734772 4.000000
31.185915 7.857234 4.000000
31.185915 8.979696 4.000000
31.185915 10.102158 4.000000
31.185915 11.224620 4.000000
31.185915 12.347083 4.000000
31.185915 13.469545 4.000000
31.185915 14.592007 4.000000
31.185915 15.714469 4.000000
31.185915 16.836931 4.000000
31.185915 17.959393 4.000000
31.185915 19.081855 4.000000
31.185915 20.204317 4.000000
31.185915 21.326779 4.000000
31.185915 22.449241 4.000000
31.185915 23.571703 4.000000
31.185915 24.694165 4.000000
31.185915 25.816627 4.000000
31.185915 26.939089 4.000000
31.185916 28.061411 4.000000
31.467102 1.122623 4.000000
31.467101 2.244925 4.000000
31.467101 3.367386 4.000000
31.467101 4.489848 4.000000
31.467101 5.612310 4.000000
31.467101 6.734772 4.000000
31.467101 7.857234 4.000000
31.467101 8.979696 4.000000
31.467101 10.102158 4.000000
31.467101 11.224620 4.000000
31.467101 12.347083 4.000000
31.467101 13.469545 4.000000
31.467101 14.592007 4.000000
31.467101 15.714469 4.000000
31.467101 16.836931 4.000000
31.467101 17.959393 4.000000
31.467101 19.081855 4.000000
31.467101 20.204317 4.000000
31.467101 21.326779 4.000000
31.467101 22.449241 4.000000
31.467101 23.571703 4.000000
31.467101 24.694165 4.000000
31.467101 25.816627 4.000000
31.467101 26.939088 4.000000
31.467102 28.061391 4.000000
32.589848 1.122621 4.000000
32.589848 2.244925 4.000000
32.589848 3.367386 4.000000
32.589848 4.489848 4.000000
32.589848 5.612310 4.000000
32.589848 6.734772 4.000000
32.589848 7.857234 4.000000
32.589848 8.979696 4.000000
32.589848 10.102158 4.000000
32.589848 11.224620 4.000000
32.589848 12.347083 4.000000
32.589848 13.469545 4.000000
32.589848 14.592007 4.000000
32.589848 15.714469 4.000000
32.589848 16.836931 4.000000
32.589848 17.959393 4.000000
32.589848 19.081855 4.000000
32.589848 20.204317 4.000000
32.589848 21.326779 4.000000
32.589848 22.449241 4.000000
32.589848 23.571703 4.000000
32.589848 24.694165 4.000000
32.589848 25.816627 4.000000
32.589848 26.939088 4.000000
32.589848 28.061392 4.000000
33.712310 1.122621 4.000000
33.712310 2.244925 4.000000
33.712310 3.367386 4.000000
33.712310 4.489848 4.000000
33.712310 5.612310 4.000000
33.712310 6.734772 4.000000
33.712310 7.857234 4.000000
33.712310 8.979696 4.000000
33.712310 10.102158 4.000000
33.712310 11.224620 4.000000
33.712310 12.347083 4.000000
33.712310 13.469545 4.000000
33.712310 14.592007 4.000000
33.712310 15.714469 4.000000
33.712310 16.836931 4.000000
33.712310 17.959393 4.000000
33.712310 19.081855 4.000000
33.712310 20.204317 4.000000
33.712310 21.326779 4.000000
33.712310 22.449241 4.000000
33.712310 23.571703 4.000000
33.712310 24.694165 4.000000
33.712310 25.816627 4.000000
33.712310 26.939088 4.000000
33.712310 28.061392 4.000000
34.834772 1.122621 4.000000
34.834772 2.244925 4.000000
34.834772 3.367386 4.000000
34.834772 4.489848 4.000000
34.834772 5.612310 4.000000
34.834772 6.734772 4.000000
34.834772 7.857234 4.000000
34.834772 8.979696 4.000000
34.834772 10.102158 4.000000
34.834772 11.224620 4.000000
34.834772 12.347083 4.000000
34.834772 13.469545 4.000000
34.834772 14.592007 4.000000
34.834772 15.714469 4.000000
34.834772 16.836931 4.000000
34.834772 17.959393 4.000000
34.834772 19.081855 4.000000
34.834772 20.204317 4.000000
34.834772 21.326779 4.000000
34.834772 22.449241 4.000000
34.834772 23.571703 4.000000
34.834772 24.694165 4.000000
34.834772 25.816627 4.000000
34.834772 26.939088 4.000000
34.834772 28.061392 4.000000
35.957234 1.122621 4.000000
35.957234 2.244925 4.000000
35.957234 3.367386 4.000000
35.957234 4.489848 4.000000
35.957234 5.612310 4.000000
35.957234 6.734772 4.000000
35.957234 7.857234 4.000000
35.957234 8.979696 4.000000
35.957234 10.102158 4.000000
35.957234 11.224620 4.000000
35.957234 12.347083 4.000000
35.957234 13.469545 4.000000
35.957234 14.592007 4.000000
35.957234 15.714469 4.000000
35.957234 16.836931 4.000000
35.957234 17.959393 4.000000
35.957234 19.081855 4.000000
35.957234 20.204317 4.000000
35.957234 21.326779 4.000000
35.957234 22.449241 4.000000
35.957234 23.571703 4.000000
35.957234 24.694165 4.000000
35.957234 25.816627 4.000000
35.957234 26.939088 4.000000
35.957234 28.061392 4.000000
37.079696 1.122621 4.000000
37.079696 2.244925 4.000000
37.079696 3.367386 4.000000
37.079696 4.489848 4.000000
37.079696 5.612310 4.000000
37.079696 6.734772 4.000000
37.079696 7.857234 4.000000
37.079696 8.979696 4.000000
37.079696 10.102158 4.000000
37.079696 11.224620 4.000000
37.079696 12.347083 4.000000
37.079696 13.469545 4.000000
37.079696 14.592007 4.000000
37.079696 15.714469 4.000000
37.079696 16.836931 4.000000
37.079696 17.959393 4.000000
37.079696 19.081855 4.000000
37.079696 20.204317 4.000000
37.079696 21.326779 4.000000
37.079696 22.449241 4.000000
37.079696 23.571703 4.000000
37.079696 24.694165 4.000000
37.079696 25.816627 4.000000
37.079696 26.939088 4.000000
37.079696 28.061392 4.000000
38.202158 1.122621 4.000000
38.202158 2.244925 4.000000
38.202158 3.367386 4.000000
38.202158 4.489848 4.000000
38.202158 5.612310 4.000000
38.202158 6.734772 4.000000
38.202158 7.857234 4.000000
38.202158 8.979696 4.000000
38.202158 10.102158 4.000000
38.202158 11.224620 4.000000
38.202158 12.347083 4.000000
38.202158 13.469545 4.000000
38.202158 14.592007 4.000000
38.202158 15.714469 4.000000
38.202158 16.836931 4.000000
38.202158 17.959393 4.000000
38.202158 19.081855 4.000000
38.202158 20.204317 4.000000
38.202158 21.326779 4.000000
38.202158 22.449241 4.000000
38.202158 23.571703 4.000000
38.202158 24.694165 4.000000
38.202158 25.816627 4.000000
38.202158 26.939088 4.000000
38.202158 28.061392 4.000000
39.324620 1.122621 4.000000
39.324620 2.244925 4.000000
39.324620 3.367386 4.000000
39.324620 4.489848 4.000000
39.324620 5.612310 4.000000
39.324620 6.734772 4.000000
39.324620 7.857234 4.000000
39.324620 8.979696 4.000000
39.324620 10.102158 4.000000
39.324620 11.224620 4.000000
39.324620 12.347083 4.000000
39.324620 13.469545 4.000000
39.324620 14.592007 4.000000
39.324620 15.714469 4.000000
39.324620 16.836931 4.000000
39.324620 17.959393 4.000000
39.324620 19.081855 4.000000
39.324620 20.204317 4.000000
39.324620 21.326779 4.000000
39.324620 22.449241 4.000000
39.324620 23.571703 4.000000
39.324620 24.694165 4.000000
39.324620 25.816627 4.000000
39.324620 26.939088 4.000000
39.324620 28.061392 4.000000
40.447083 1.122621 4.000000
40.447083 2.244925 4.000000
40.447083 3.367386 4.000000
40.447083 4.489848 4.000000
40.447083 5.612310 4.000000
40.447083 6.734772 4.000000
40.447083 7.857234 4.000000
40.447083 8.979696 4.000000
40.447083 10.102158 4.000000
40.447083 11.224620 4.000000
40.447083 12.347083 4.000000
40.447083 13.469545 4.000000
40.447083 14.592007 4.000000
40.447083 15.714469 4.000000
40.447083 16.836931 4.000000
40.447083 17.959393 4.000000
40.447083 19.081855 4.000000
40.447083 20.204317 4.000000
40.447083 21.326779 4.000000
40.447083 22.449241 4.000000
40.447083 23.571703 4.000000
40.447083 24.694165 4.000000
40.447083 25.816627 4.000000
40.447083 26.939088 4.000000
40.447083 28.061392 4.000000
41.569545 1.122621 4.000000
41.569545 2.244925 4.000000
41.569545 3.367386 4.000000
41.569545 4.489848 4.000000
41.569545 5.612310 4.000000
41.569545 6.734772 4.000000
41.569545 7.857234 4.000000
41.569545 8.979696 4.000000
41.569545 10.102158 4.000000
41.569545 11.224620 4.000000
41.569545 12.347083 4.000000
41.569545 13.469545 4.000000
41.569545 14.592007 4.000000
41.569545 15.714469 4.000000
41.569545 16.836931 4.000000
41.569545 17.959393 4.000000
41.569545 19.081855 4.000000
41.569545 20.204317 4.000000
41.569545 21.326779 4.000000
41.569545 22.449241 4.000000
41.569545 23.571703 4.000000
41.569545 24.694165 4.000000
41.569545 25.816627 4.000000
41.569545 26.939088 4.000000
41.569545 28.061392 4.000000
42.692007 1.122621 4.000000
42.692007 2.244925 4.000000
42.692007 3.367386 4.000000
42.692007 4.489848 4.000000
42.692007 5.612310 4.000000
42.692007 6.734772 4.000000
42.692007 7.857234 4.000000
42.692007 8.979696 4.000000
42.692007 10.102158 4.000000
42.692007 11.224620 4.000000
42.692007 12.347083 4.000000
42.692007 13.469545 4.000000
42.692007 14.592007 4.000000
42.692007 15.714469 4.000000
42.692007 16.836931 4.000000
42.692007 17.959393 4.000000
42.692007 19.081855 4.000000
42.692007 20.204317 4.000000
42.692007 21.326779 4.000000
42.692007 22.449241 4.000000
42.692007 23.571703 4.000000
42.692007 24.694165 4.000000
42.692007 25.816627 4.000000
42.692007 26.939088 4.000000
42.692007 28.061392 4.000000
43.814469 1.122621 4.000000
43.814469 2.244925 4.000000
43.814469 3.367386 4.000000
43.814469 4.489848 4.000000
43.814469 5.612310 4.000000
43.814469 6.734772 4.000000
43.814469 7.857234 4.000000
43.814469 8.979696 4.000000
43.814469 10.102158 4.000000
43.814469 11.224620 4.000000
43.814469 12.347083 4.000000
43.814469 13.469545 4.000000
43.814469 14.592007 4.000000
43.814469 15.714469 4.000000
43.814469 16.836931 4.000000
43.814469 17.959393 4.000000
43.814469 19.081855 4.000000
43.814469 20.204317 4.000000
43.814469 21.326779 4.000000
43.814469 22.449241 4.000000
[...]
POINT_DATA 1250
SCALARS m double
LOOKUP_TABLE default
1.000000
1.000000
1.000000
1.000000
1.000000
1.000000
1.000000
1.000000
1.000000
1.000000
1.000000
1.000000
1.000000
1.000000
1.000000
1.000000
1.000000
1.000000
1.000000
1.000000
1.000000
1.000000
1.000000
1.000000
1.000000
1.000000
1.000000
1.000000
1.000000
1.000000
1.000000
1.000000
1.000000
1.000000
1.000000
1.000000
1.000000
1.000000
1.000000
1.000000
1.000000
1.000000
1.000000
1.000000
1.000000
1.000000
1.000000
1.000000
1.000000
1.000000
1.000000
1.000000
1.000000
1.000000
1.000000
1.000000
1.000000
1.000000
1.000000
1.000000
1.000000
1.000000
1.000000
1.000000
1.000000
1.000000
1.000000
1.000000
1.000000
1.000000
1.000000
1.000000
1.000000
1.000000
1.000000
1.000000
1.000000
1.000000
1.000000
1.000000
1.000000
1.000000
1.000000
1.000000
1.000000
1.000000
1.000000
1.000000
1.000000
1.000000
1.000000
1.000000
1.000000
1.000000
1.000000
1.000000
1.000000
1.000000
1.000000
1.000000
1.000000
1.000000
1.000000
1.000000
1.000000
1.000000
1.000000
1.000000
1.000000
1.000000
1.000000
1.000000
1.000000
1.000000
1.000000
1.000000
1.000000
1.000000
1.000000
1.000000
1.000000
1.000000
1.000000
1.000000
1.000000
1.000000
1.000000
1.000000
1.000000
1.000000
1.000000
1.000000
1.000000
1.000000
1.000000
1.000000
1.000000
1.000000
1.000000
1.000000
1.000000
1.000000
1.000000
1.000000
1.000000
1.000000
1.000000
1.000000
1.000000
1.000000
1.000000
1.000000
1.000000
1.000000
1.000000
1.000000
1.000000
1.000000
1.000000
1.000000
1.000000
1.000000
1.000000
1.000000
1.000000
1.000000
1.000000
1.000000
1.000000
1.000000
1.000000
1.000000
1.000000
1.000000
1.000000
1.000000
1.000000
1.000000
1.000000
1.000000
1.000000
1.000000
1.000000
1.000000
1.000000
1.000000
1.000000
1.000000
1.000000
1.000000
1.000000
1.000000
1.000000
1.000000
1.000000
1.000000
1.000000
1.000000
1.000000
1.000000
1.000000
1.000000
1.000000
1.000000
1.000000
1.000000
1.000000
1.000000
1.000000
1.000000
1.000000
1.000000
1.000000
1.000000
1.000000
1.000000
1.000000
1.000000
1.000000
1.000000
1.000000
1.000000
1.000000
1.000000
1.000000
1.000000
1.000000
1.000000
1.000000
1.000000
1.000000
1.000000
1.000000
1.000000
1.000000
1.000000
1.000000
1.000000
1.000000
1.000000
1.000000
1.000000
1.000000
1.000000
1.000000
1.000000
1.000000
1.000000
1.000000
1.000000
1.000000
1.000000
1.000000
1.000000
1.000000
1.000000
1.000000
1.000000
1.000000
1.000000
1.000000
1.000000
1.000000
1.000000
1.000000
1.000000
1.000000
1.000000
1.000000
1.000000
1.000000
1.000000
1.000000
1.000000
1.000000
1.000000
1.000000
1.000000
1.000000
1.000000
1.000000
1.000000
1.000000
1.000000
1.000000
1.000000
1.000000
1.000000
1.000000
1.000000
1.000000
1.000000
1.000000
1.000000
1.000000
1.000000
1.000000
1.000000
1.000000
1.000000
1.000000
1.000000
1.000000
1.000000
1.000000
1.000000
1.000000
1.000000
1.000000
1.000000
1.000000
1.000000
1.000000
1.000000
1.000000
1.000000
1.000000
1.000000
1.000000
1.000000
1.000000
1.000000
1.000000
1.000000
1.000000
1.000000
1.000000
1.000000
1.000000
1.000000
1.000000
1.000000
1.000000
1.000000
1.000000
1.000000
1.000000
1.000000
1.000000
1.000000
1.000000
1.000000
1.000000
1.000000
1.000000
1.000000
1.000000
1.000000
1.000000
1.000000
1.000000
1.000000
1.000000
1.000000
1.000000
1.000000
1.000000
1.000000
1.000000
1.000000
1.000000
1.000000
1.000000
1.000000
1.000000
1.000000
1.000000
1.000000
1.000000
1.000000
1.000000
1.000000
1.000000
1.000000
1.000000
1.000000
1.000000
1.000000
1.000000
1.000000
1.000000
1.000000
1.000000
1.000000
1.000000
1.000000
1.000000
1.000000
1.000000
1.000000
1.000000
1.000000
1.000000
1.000000
1.000000
1.000000
1.000000
1.000000
1.000000
1.000000
1.000000
1.000000
1.000000
1.000000
1.000000
1.000000
1.000000
1.000000
1.000000
1.000000
1.000000
1.000000
1.000000
1.000000
1.000000
1.000000
1.000000
1.000000
1.000000
1.000000
1.000000
1.000000
1.000000
1.000000
1.000000
1.000000
1.000000
1.000000
1.000000
1.000000
1.000000
1.000000
1.000000
1.000000
1.000000
1.000000
1.000000
1.000000
1.000000
1.000000
1.000000
1.000000
1.000000
1.000000
1.000000
1.000000
1.000000
1.000000
1.000000
1.000000
1.000000
1.000000
1.000000
1.000000
1.000000
1.000000
1.000000
1.000000
1.000000
1.000000
1.000000
1.000000
1.000000
1.000000
1.000000
1.000000
1.000000
1.000000
1.000000
1.000000
1.000000
1.000000
1.000000
1.000000
1.000000
1.000000
1.000000
1.000000
1.000000
1.000000
1.000000
1.000000
1.000000
1.000000
1.000000
1.000000
1.000000
1.000000
1.000000
1.000000
1.000000
1.000000
1.000000
1.000000
1.000000
1.000000
1.000000
1.000000
1.000000
1.000000
1.000000
1.000000
1.000000
1.000000
1.000000
1.000000
1.000000
1.000000
1.000000
1.000000
1.000000
1.000000
1.000000
1.000000
1.000000
1.000000
1.000000
1.000000
1.000000
1.000000
1.000000
1.000000
1.000000
1.000000
1.000000
1.000000
1.000000
1.000000
1.000000
1.000000
1.000000
1.000000
1.000000
1.000000
1.000000
1.000000
1.000000
1.000000
1.000000
1.000000
1.000000
1.000000
1.000000
1.000000
1.000000
1.000000
1.000000
1.000000
1.000000
1.000000
1.000000
1.000000
1.000000
1.000000
1.000000
1.000000
1.000000
1.000000
1.000000
1.000000
1.000000
1.000000
1.000000
1.000000
1.000000
1.000000
1.000000
1.000000
1.000000
1.000000
1.000000
1.000000
1.000000
1.000000
1.000000
1.000000
1.000000
1.000000
1.000000
1.000000
1.000000
1.000000
1.000000
1.000000
1.000000
1.000000
1.000000
1.000000
1.000000
1.000000
1.000000
1.000000
1.000000
1.000000
1.000000
1.000000
1.000000
1.000000
1.000000
1.000000
1.000000
1.000000
1.000000
1.000000
1.000000
1.000000
1.000000
1.000000
1.000000
1.000000
1.000000
1.000000
1.000000
1.000000
1.000000
1.000000
1.000000
1.000000
1.000000
1.000000
1.000000
1.000000
1.000000
1.000000
1.000000
1.000000
1.000000
1.000000
1.000000
1.000000
1.000000
1.000000
1.000000
1.000000
1.000000
1.000000
1.000000
1.000000
1.000000
1.000000
1.000000
1.000000
1.000000
1.000000
1.000000
1.000000
1.000000
1.000000
1.000000
1.000000
1.000000
1.000000
1.000000
1.000000
1.000000
1.000000
1.000000
1.000000
1.000000
1.000000
1.000000
1.000000
1.000000
1.000000
1.000000
1.000000
1.000000
1.000000
1.000000
1.000000
1.000000
1.000000
1.000000
1.000000
1.000000
1.000000
1.000000
1.000000
1.000000
1.000000
1.000000
1.000000
1.000000
1.000000
1.000000
1.000000
1.000000
1.000000
1.000000
1.000000
1.000000
1.000000
1.000000
1.000000
1.000000
1.000000
1.000000
1.000000
1.000000
1.000000
1.000000
1.000000
1.000000
1.000000
1.000000
1.000000
1.000000
1.000000
1.000000
1.000000
1.000000
1.000000
1.000000
1.000000
1.000000
1.000000
1.000000
1.000000
1.000000
1.000000
1.000000
1.000000
1.000000
1.000000
1.000000
1.000000
1.000000
1.000000
1.000000
1.000000
1.000000
1.000000
1.000000
1.000000
1.000000
1.000000
1.000000
1.000000
1.000000
1.000000
1.000000
1.000000
1.000000
1.000000
1.000000
1.000000
1.000000
1.000000
1.000000
1.000000
1.000000
1.000000
1.000000
1.000000
1.000000
1.000000
1.000000
1.000000
1.000000
1.000000
1.000000
1.000000
1.000000
1.000000
1.000000
1.000000
1.000000
1.000000
1.000000
1.000000
1.000000
1.000000
1.000000
1.000000
1.000000
1.000000
1.000000
1.000000
1.000000
1.000000
1.000000
1.000000
1.000000
1.000000
1.000000
1.000000
1.000000
1.000000
1.000000
1.000000
1.000000
1.000000
1.000000
1.000000
1.000000
1.000000
1.000000
1.000000
1.000000
1.000000
1.000000
1.000000
1.000000
1.000000
1.000000
1.000000
1.000000
1.000000
1.000000
1.000000
1.000000
1.000000
1.000000
1.000000
1.000000
1.000000
1.000000
1.000000
1.000000
1.000000
1.000000
1.000000
1.000000
1.000000
1.000000
1.000000
1.000000
1.000000
1.000000
1.000000
1.000000
1.000000
1.000000
1.000000
1.000000
1.000000
1.000000
1.000000
1.000000
1.000000
1.000000
1.000000
1.000000
1.000000
1.000000
1.000000
1.000000
1.000000
1.000000
1.000000
1.000000
1.000000
1.000000
1.000000
1.000000
1.000000
1.000000
1.000000
1.000000
1.000000
1.000000
1.000000
1.000000
1.000000
1.000000
1.000000
1.000000
1.000000
1.000000
1.000000
1.000000
1.000000
1.000000
1.000000
1.000000
1.000000
1.000000
1.000000
1.000000
1.000000
1.000000
1.000000
1.000000
1.000000
1.000000
1.000000
1.000000
1.000000
1.000000
1.000000
1.000000
1.000000
1.000000
1.000000
1.000000
1.000000
1.000000
1.000000
1.000000
1.000000
1.000000
1.000000
1.000000
1.000000
1.000000
1.000000
1.000000
1.000000
1.000000
1.000000
1.000000
1.000000
1.000000
1.000000
1.000000
1.000000
1.000000
1.000000
1.000000
1.000000
1.000000
1.000000
1.000000
1.000000
1.000000
1.000000
1.000000
1.000000
1.000000
1.000000
1.000000
1.000000
1.000000
1.000000
1.000000
1.000000
1.000000
1.000000
1.000000
1.000000
1.000000
1.000000
1.000000
1.000000
1.000000
1.000000
1.000000
1.000000
1.000000
1.000000
1.000000
1.000000
1.000000
1.000000
1.000000
1.000000
1.000000
1.000000
1.000000
1.000000
1.000000
1.000000
1.000000
1.000000
1.000000
1.000000
1.000000
1.000000
1.000000
1.000000
1.000000
1.000000
1.000000
1.000000
1.000000
1.000000
1.000000
1.000000
1.000000
1.000000
1.000000
1.000000
1.000000
1.000000
1.000000
1.000000
1.000000
1.000000
1.000000
1.000000
1.000000
1.000000
1.000000
1.000000
1.000000
1.000000
1.000000
1.000000
1.000000
1.000000
1.000000
1.000000
1.000000
1.000000
1.000000
1.000000
1.000000
1.000000
1.000000
1.000000
1.000000
1.000000
1.000000
1.000000
1.000000
1.000000
1.000000
1.000000
1.000000
1.000000
1.000000
1.000000
1.000000
1.000000
1.000000
1.000000
1.000000
1.000000
1.000000
1.000000
1.000000
1.000000
1.000000
1.000000
1.000000
1.000000
1.000000
1.000000
1.000000
1.000000
1.000000
1.000000
1.000000
1.000000
1.000000
1.000000
1.000000
1.000000
1.000000
1.000000
1.000000
1.000000
1.000000
1.000000
1.000000
1.000000
1.000000
1.000000
1.000000
1.000000
1.000000
1.000000
1.000000
1.000000
1.000000
1.000000
1.000000
1.000000
1.000000
1.000000
1.000000
1.000000
1.000000
1.000000
1.000000
1.000000
1.000000
1.000000
1.000000
1.000000
1.000000
1.000000
1.000000
1.000000
1.000000
1.000000
1.000000
1.000000
1.000000
1.000000
1.000000
1.000000
1.000000
1.000000
1.000000
1.000000
1.000000
1.000000
1.000000
1.000000
1.000000
1.000000
1.000000
1.000000
1.000000
1.000000
1.000000
1.000000
1.000000
1.000000
1.000000
1.000000
1.000000
1.000000
1.000000
1.000000
1.000000
1.000000
1.000000
1.000000
1.000000
1.000000
1.000000
1.000000
1.000000
1.000000
1.000000
1.000000
1.000000
1.000000
1.000000
1.000000
1.000000
1.000000
1.000000
1.000000
1.000000
1.000000
1.000000
1.000000
1.000000
1.000000
1.000000
1.000000
1.000000
1.000000
1.000000
1.000000
1.000000
1.000000
1.000000
1.000000
1.000000
1.000000
1.000000
1.000000
1.000000
1.000000
1.000000
1.000000
1.000000
1.000000
1.000000
1.000000
1.000000
1.000000
1.000000
1.000000
1.000000
1.000000
1.000000
1.000000
1.000000
1.000000
1.000000
1.000000
1.000000
1.000000
1.000000
1.000000
1.000000
1.000000
1.000000
1.000000
1.000000
1.000000
1.000000
1.000000
1.000000
1.000000
1.000000
1.000000
1.000000
1.000000
1.000000
1.000000
1.000000
1.000000
1.000000
1.000000
1.000000
1.000000
1.000000
1.000000
1.000000
1.000000
1.000000
1.000000
1.000000
1.000000
1.000000
1.000000
1.000000
1.000000
1.000000
1.000000
1.000000
1.000000
1.000000
1.000000
1.000000
1.000000
1.000000
1.000000
1.000000
1.000000
1.000000
1.000000
1.000000
1.000000
1.000000
1.000000
1.000000
1.000000
1.000000
1.000000
1.000000
1.000000
1.000000
1.000000
1.000000
1.000000
1.000000
1.000000
1.000000
1.000000
1.000000
1.000000
1.000000
1.000000
VECTORS v double
-9.834800 0.002963 0.000000
-9.834774 0.000037 0.000000
-9.834773 -0.000000 0.000000
-9.834773 -0.000000 0.000000
-9.834773 0.000000 0.000000
-9.834773 0.000000 0.000000
-9.834773 -0.000000 0.000000
-9.834773 -0.000000 0.000000
-9.834773 0.000000 0.000000
-9.834773 -0.000000 0.000000
-9.834773 0.000000 0.000000
-9.834773 0.000000 0.000000
-9.834773 -0.000000 0.000000
-9.834773 -0.000000 0.000000
-9.834773 -0.000000 0.000000
-9.834773 0.000000 0.000000
-9.834773 -0.000000 0.000000
-9.834773 -0.000000 0.000000
-9.834773 0.000000 0.000000
-9.834773 0.000000 0.000000
-9.834773 -0.000000 0.000000
-9.834773 0.000000 0.000000
-9.834773 0.000000 0.000000
-9.834774 -0.000037 0.000000
-9.834800 -0.002963 0.000000
9.835469 0.001266 0.000000
9.835467 -0.000001 0.000000
9.835467 -0.000000 0.000000
9.835467 -0.000000 0.000000
9.835467 0.000000 0.000000
9.835467 0.000000 0.000000
9.835467 -0.000000 0.000000
9.835467 -0.000000 0.000000
9.835467 0.000000 0.000000
9.835467 -0.000000 0.000000
9.835467 -0.000000 0.000000
9.835467 0.000000 0.000000
9.835467 -0.000000 0.000000
9.835467 -0.000000 0.000000
9.835467 -0.000000 0.000000
9.835467 0.000000 0.000000
9.835467 -0.000000 0.000000
9.835467 -0.000000 0.000000
9.835467 0.000000 0.000000
9.835467 0.000000 0.000000
9.835467 -0.000000 0.000000
9.835467 0.000000 0.000000
9.835467 0.000000 0.000000
9.835467 0.000001 0.000000
9.835469 -0.001266 0.000000
-9.836225 0.001792 0.000000
-9.836275 0.000013 0.000000
-9.836275 -0.000000 0.000000
-9.836275 -0.000000 0.000000
-9.836275 0.000000 0.000000
-9.836275 -0.000000 0.000000
-9.836275 -0.000000 0.000000
-9.836275 -0.000000 0.000000
-9.836275 0.000000 0.000000
-9.836275 -0.000000 0.000000
-9.836275 -0.000000 0.000000
-9.836275 0.000000 0.000000
-9.836275 -0.000000 0.000000
-9.836275 -0.000000 0.000000
-9.836275 -0.000000 0.000000
-9.836275 0.000000 0.000000
-9.836275 -0.000000 0.000000
-9.836275 -0.000000 0.000000
-9.836275 0.000000 0.000000
-9.836275 0.000000 0.000000
-9.836275 -0.000000 0.000000
-9.836275 0.000000 0.000000
-9.836275 0.000000 0.000000
-9.836275 -0.000013 0.000000
-9.836225 -0.001792 0.000000
-10.000020 0.001679 0.000000
-10.000024 0.000011 0.000000
-10.000024 -0.000000 0.000000
-10.000024 -0.000000 0.000000
-10.000024 0.000000 0.000000
-10.000024 -0.000000 0.000000
-10.000024 -0.000000 0.000000
-10.000024 -0.000000 0.000000
-10.000024 0.000000 0.000000
-10.000024 -0.000000 0.000000
-10.000024 -0.000000 0.000000
-10.000024 0.000000 0.000000
-10.000024 -0.000000 0.000000
-10.000024 -0.000000 0.000000
-10.000024 -0.000000 0.000000
-10.000024 0.000000 0.000000
-10.000024 -0.000000 0.000000
-10.000024 -0.000000 0.000000
-10.000024 0.000000 0.000000
-10.000024 0.000000 0.000000
-10.000024 -0.000000 0.000000
-10.000024 0.000000 0.000000
-10.000024 0.000000 0.000000
-10.000024 -0.000011 0.000000
-10.000020 -0.001679 0.000000
-10.000000 0.001677 0.000000
-10.000000 0.000011 0.000000
-10.000000 -0.000000 0.000000
-10.000000 -0.000000 0.000000
-10.000000 0.000000 0.000000
-10.000000 -0.000000 0.000000
-10.000000 -0.000000 0.000000
-10.000000 -0.000000 0.000000
-10.000000 0.000000 0.000000
-10.000000 -0.000000 0.000000
-10.000000 -0.000000 0.000000
-10.000000 0.000000 0.000000
-10.000000 -0.000000 0.000000
-10.000000 -0.000000 0.000000
-10.000000 -0.000000 0.000000
-10.000000 0.000000 0.000000
-10.000000 -0.000000 0.000000
-10.000000 -0.000000 0.000000
-10.000000 0.000000 0.000000
-10.000000 0.000000 0.000000
-10.000000 -0.000000 0.000000
-10.000000 0.000000 0.000000
-10.000000 0.000000 0.000000
-10.000000 -0.000011 0.000000
-10.000000 -0.001677 0.000000
-10.000000 0.001677 0.000000
-10.000000 0.000011 0.000000
-10.000000 -0.000000 0.000000
-10.000000 -0.000000 0.000000
-10.000000 0.000000 0.000000
-10.000000 -0.000000 0.000000
-10.000000 -0.000000 0.000000
-10.000000 -0.000000 0.000000
-10.000000 0.000000 0.000000
-10.000000 -0.000000 0.000000
-10.000000 -0.000000 0.000000
-10.000000 0.000000 0.000000
-10.000000 -0.000000 0.000000
-10.000000 -0.000000 0.000000
-10.000000 -0.000000 0.000000
-10.000000 0.000000 0.000000
-10.000000 -0.000000 0.000000
-10.000000 -0.000000 0.000000
-10.000000 0.000000 0.000000
-10.000000 0.000000 0.000000
-10.000000 -0.000000 0.000000
-10.000000 0.000000 0.000000
-10.000000 0.000000 0.000000
-10.000000 -0.000011 0.000000
-10.000000 -0.001677 0.000000
-10.000000 0.001677 0.000000
-10.000000 0.000011 0.000000
-10.000000 -0.000000 0.000000
-10.000000 -0.000000 0.000000
-10.000000 0.000000 0.000000
-10.000000 -0.000000 0.000000
-10.000000 -0.000000 0.000000
-10.000000 -0.000000 0.000000
-10.000000 0.000000 0.000000
-10.000000 -0.000000 0.000000
-10.000000 -0.000000 0.000000
-10.000000 0.000000 0.000000
-10.000000 -0.000000 0.000000
-10.000000 -0.000000 0.000000
-10.000000 -0.000000 0.000000
-10.000000 0.000000 0.000000
-10.000000 -0.000000 0.000000
-10.000000 -0.000000 0.000000
-10.000000 0.000000 0.000000
-10.000000 0.000000 0.000000
-10.000000 -0.000000 0.000000
-10.000000 0.000000 0.000000
-10.000000 0.000000 0.000000
-10.000000 -0.000011 0.000000
-10.000000 -0.001677 0.000000
-10.000000 0.001677 0.000000
-10.000000 0.000011 0.000000
-10.000000 -0.000000 0.000000
-10.000000 -0.000000 0.000000
-10.000000 0.000000 0.000000
-10.000000 -0.000000 0.000000
-10.000000 -0.000000 0.000000
-10.000000 -0.000000 0.000000
-10.000000 0.000000 0.000000
-10.000000 -0.000000 0.000000
-10.000000 -0.000000 0.000000
-10.000000 0.000000 0.000000
-10.000000 -0.000000 0.000000
-10.000000 -0.000000 0.000000
-10.000000 -0.000000 0.000000
-10.000000 0.000000 0.000000
-10.000000 -0.000000 0.000000
-10.000000 -0.000000 0.000000
-10.000000 0.000000 0.000000
-10.000000 0.000000 0.000000
-10.000000 -0.000000 0.000000
-10.000000 0.000000 0.000000
-10.000000 0.000000 0.000000
-10.000000 -0.000011 0.000000
-10.000000 -0.001677 0.000000
-10.000000 0.001677 0.000000
-10.000000 0.000011 0.000000
-10.000000 -0.000000 0.000000
-10.000000 -0.000000 0.000000
-10.000000 0.000000 0.000000
-10.000000 -0.000000 0.000000
-10.000000 -0.000000 0.000000
-10.000000 -0.000000 0.000000
-10.000000 0.000000 0.000000
-10.000000 -0.000000 0.000000
-10.000000 0.000000 0.000000
-10.000000 0.000000 0.000000
-10.000000 -0.000000 0.000000
-10.000000 -0.000000 0.000000
-10.000000 -0.000000 0.000000
-10.000000 0.000000 0.000000
-10.000000 -0.000000 0.000000
-10.000000 -0.000000 0.000000
-10.000000 0.000000 0.000000
-10.000000 0.000000 0.000000
-10.000000 -0.000000 0.000000
-10.000000 0.000000 0.000000
-10.000000 0.000000 0.000000
-10.000000 -0.000011 0.000000
-10.000000 -0.001677 0.000000
-10.000000 0.001677 0.000000
-10.000000 0.000011 0.000000
-10.000000 -0.000000 0.000000
-10.000000 -0.000000 0.000000
-10.000000 0.000000 0.000000
-10.000000 -0.000000 0.000000
-10.000000 -0.000000 0.000000
-10.000000 -0.000000 0.000000
-10.000000 0.000000 0.000000
-10.000000 -0.000000 0.000000
-10.000000 -0.000000 0.000000
-10.000000 0.000000 0.000000
-10.000000 -0.000000 0.000000
-10.000000 -0.000000 0.000000
-10.000000 -0.000000 0.000000
-10.000000 0.000000 0.000000
-10.000000 -0.000000 0.000000
-10.000000 -0.000000 0.000000
-10.000000 0.000000 0.000000
-10.000000 0.000000 0.000000
-10.000000 -0.000000 0.000000
-10.000000 0.000000 0.000000
-10.000000 0.000000 0.000000
-10.000000 -0.000011 0.000000
-10.000000 -0.001677 0.000000
-10.000000 0.001677 0.000000
-10.000000 0.000011 0.000000
-10.000000 -0.000000 0.000000
-10.000000 -0.000000 0.000000
-10.000000 0.000000 0.000000
-10.000000 -0.000000 0.000000
-10.000000 -0.000000 0.000000
-10.000000 -0.000000 0.000000
-10.000000 0.000000 0.000000
-10.000000 -0.000000 0.000000
-10.000000 -0.000000 0.000000
-10.000000 0.000000 0.000000
-10.000000 -0.000000 0.000000
-10.000000 -0.000000 0.000000
-10.000000 -0.000000 0.000000
-10.000000 0.000000 0.000000
-10.000000 -0.000000 0.000000
-10.000000 -0.000000 0.000000
-10.000000 0.000000 0.000000
-10.000000 0.000000 0.000000
-10.000000 -0.000000 0.000000
-10.000000 0.000000 0.000000
-10.000000 0.000000 0.000000
-10.000000 -0.000011 0.000000
-10.000000 -0.001677 0.000000
-10.000000 0.001677 0.000000
-10.000000 0.000011 0.000000
-10.000000 -0.000000 0.000000
-10.000000 -0.000000 0.000000
-10.000000 0.000000 0.000000
-10.000000 -0.000000 0.000000
-10.000000 -0.000000 0.000000
-10.000000 -0.000000 0.000000
-10.000000 0.000000 0.000000
-10.000000 -0.000000 0.000000
-10.000000 0.000000 0.000000
-10.000000 0.000000 0.000000
-10.000000 -0.000000 0.000000
-10.000000 -0.000000 0.000000
-10.000000 -0.000000 0.000000
-10.000000 0.000000 0.000000
-10.000000 -0.000000 0.000000
-10.000000 -0.000000 0.000000
-10.000000 0.000000 0.000000
-10.000000 0.000000 0.000000
-10.000000 -0.000000 0.000000