# vtk DataFile Version 4.0
hesp visualization file
ASCII
DATASET UNSTRUCTURED_GRID
POINTS 1250 double
32.084854 -4.308168 4.000000
31.120854 -2.607186 4.000000
33.668876 6.396310 4.000000
34.012274 8.248859 4.000000
27.733585 4.790859 4.000000
30.535801 13.384400 4.000000
29.013281 9.084490 4.000000
33.860678 8.744539 4.000000
35.320921 15.170554 4.000000
33.447529 13.136614 4.000000
33.826181 8.997644 4.000000
32.527028 15.618620 4.000000
33.314936 15.234747 4.000000
28.975323 17.954697 4.000000
30.703656 18.309990 4.000000
28.641470 15.472123 4.000000
30.091358 19.756849 4.000000
35.501232 16.640598 4.000000
28.272611 23.741509 4.000000
29.107366 17.650336 4.000000
36.906824 24.528297 4.000000
31.650693 33.322302 4.000000
35.076764 26.447302 4.000000
31.136993 34.565956 4.000000
30.991390 30.294665 4.000000
32.495281 -20.174540 4.000000
31.144165 1.402244 4.000000
35.863201 -9.334433 4.000000
31.975551 0.547819 4.000000
26.644062 10.979073 4.000000
30.846844 2.313092 4.000000
33.548778 7.113510 4.000000
31.880180 11.734755 4.000000
33.211100 11.466576 4.000000
31.081541 13.166091 4.000000
30.392958 13.026549 4.000000
27.850823 13.703434 4.000000
35.450080 16.079428 4.000000
32.594284 16.363236 4.000000
36.360604 13.968661 4.000000
31.053476 14.293058 4.000000
33.896699 19.139512 4.000000
32.150512 16.013772 4.000000
34.030693 21.682699 4.000000
31.655072 24.096769 4.000000
30.798750 26.130463 4.000000
32.802932 20.693314 4.000000
35.868806 38.489222 4.000000
31.429179 30.554721 4.000000
32.495281 49.358554 4.000000
31.820889 -8.819068 4.000000
33.606295 1.032162 4.000000
31.130360 0.311301 4.000000
28.153707 8.988210 4.000000
33.327452 -2.075572 4.000000
30.272993 10.299623 4.000000
30.107255 7.769393 4.000000
29.615088 6.748067 4.000000
31.023251 15.128671 4.000000
33.911407 10.802053 4.000000
31.681108 14.637220 4.000000
25.927107 15.553775 4.000000
37.409317 16.275485 4.000000
37.080456 13.836892 4.000000
33.128942 13.032071 4.000000
32.462355 14.336057 4.000000
30.382585 20.553460 4.000000
30.519574 21.221057 4.000000
28.886208 19.682342 4.000000
35.698507 13.828456 4.000000
29.881079 25.073442 4.000000
28.803104 20.451797 4.000000
31.835590 23.015543 4.000000
32.106523 32.060695 4.000000
31.710958 37.943058 4.000000
32.480706 -7.523698 4.000000
37.075440 -13.391547 4.000000
31.757069 4.342740 4.000000
38.449486 1.771008 4.000000
29.428313 1.072360 4.000000
32.980358 2.005830 4.000000
29.411133 8.906960 4.000000
28.920525 12.322489 4.000000
32.812768 7.374928 4.000000
33.886747 0.307142 4.000000
36.396012 15.042821 4.000000
33.293293 14.355186 4.000000
37.030806 8.813330 4.000000
30.616706 15.766902 4.000000
34.304422 16.593457 4.000000
29.768936 17.506673 4.000000
36.507109 19.294527 4.000000
32.357711 10.202459 4.000000
28.023121 23.057603 4.000000
30.234902 16.474050 4.000000
35.908749 29.288137 4.000000
37.291138 31.717446 4.000000
31.710428 26.307249 4.000000
37.075447 42.575560 4.000000
34.638946 35.398792 4.000000
29.922398 1.499534 4.000000
33.328998 0.062668 4.000000
30.400974 -12.498845 4.000000
31.629993 1.633322 4.000000
31.787108 5.947574 4.000000
31.256966 11.780785 4.000000
34.366881 6.736868 4.000000
37.190610 11.890463 4.000000
36.111657 6.619949 4.000000
35.256509 8.269390 4.000000
32.305463 15.560292 4.000000
31.692000 7.609841 4.000000
37.400686 19.064740 4.000000
32.494459 15.920883 4.000000
26.372814 18.636546 4.000000
37.669883 12.004608 4.000000
30.522324 20.947072 4.000000
31.132387 20.839289 4.000000
32.789888 22.428390 4.000000
32.285691 21.495449 4.000000
32.058172 23.776813 4.000000
34.327740 24.450194 4.000000
34.633143 39.404099 4.000000
33.155984 29.467681 4.000000
30.952362 31.490559 4.000000
30.907812 -7.338652 4.000000
31.016294 -14.094295 4.000000
36.623777 5.939937 4.000000
27.527999 2.956716 4.000000
32.136501 6.636340 4.000000
31.797175 6.836714 4.000000
28.710364 8.238650 4.000000
33.335228 10.111278 4.000000
30.922422 12.021336 4.000000
33.584899 7.749655 4.000000
29.853435 11.540764 4.000000
33.824130 12.693214 4.000000
32.319891 12.176346 4.000000
35.426374 13.195576 4.000000
31.607199 10.561982 4.000000
33.829276 13.307758 4.000000
35.170183 18.285464 4.000000
32.677759 25.097196 4.000000
29.329033 17.958174 4.000000
27.840386 26.998462 4.000000
30.763867 17.753589 4.000000
29.050352 19.053167 4.000000
44.265544 19.340766 4.000000
30.616415 41.738027 4.000000
29.914784 37.072502 4.000000
30.436293 -3.513901 4.000000
36.727257 -9.264550 4.000000
33.032851 -5.161857 4.000000
32.993733 3.848336 4.000000
28.672957 9.340366 4.000000
34.489316 5.211808 4.000000
33.292346 8.742083 4.000000
37.387236 13.477967 4.000000
28.220551 2.572636 4.000000
31.481540 8.618090 4.000000
29.576147 9.547647 4.000000
37.028205 16.018742 4.000000
32.733961 13.711247 4.000000
26.884877 14.753645 4.000000
34.550063 25.884982 4.000000
34.028732 16.897229 4.000000
32.621565 25.617712 4.000000
33.823282 20.971804 4.000000
30.206053 22.300212 4.000000
31.789595 23.883740 4.000000
33.668597 32.660232 4.000000
34.617680 20.161856 4.000000
30.488217 29.286538 4.000000
30.485181 32.307954 4.000000
32.679383 33.279353 4.000000
42.388818 -13.912639 4.000000
31.369904 -6.256688 4.000000
35.613867 -1.529911 4.000000
30.938558 4.219655 4.000000
31.332222 6.884721 4.000000
34.458173 1.977031 4.000000
36.556777 8.736566 4.000000
35.588717 11.222592 4.000000
30.865041 11.070160 4.000000
33.248725 12.265758 4.000000
31.896641 12.281510 4.000000
32.724352 12.969097 4.000000
33.022599 17.667501 4.000000
35.759681 21.163104 4.000000
34.450252 16.855764 4.000000
35.031799 14.543407 4.000000
36.721609 18.584291 4.000000
34.698091 22.591483 4.000000
35.106633 21.756393 4.000000
28.760875 21.639693 4.000000
32.439879 17.657069 4.000000
33.793881 19.939604 4.000000
35.394001 31.877986 4.000000
31.401710 17.492536 4.000000
42.388818 43.096652 4.000000
30.054596 -0.824951 4.000000
35.816415 0.076473 4.000000
36.703291 -10.384005 4.000000
38.328553 4.126012 4.000000
34.182429 8.540542 4.000000
35.585866 4.945669 4.000000
30.565880 13.893529 4.000000
34.779999 11.426097 4.000000
36.574996 7.931240 4.000000
33.319844 4.718519 4.000000
35.567682 5.901956 4.000000
38.003722 16.063560 4.000000
39.965745 15.081096 4.000000
35.468227 17.163748 4.000000
30.881057 20.253475 4.000000
35.658999 16.390704 4.000000
34.881528 17.578634 4.000000
37.323867 16.824363 4.000000
30.552710 16.081901 4.000000
31.196327 21.842173 4.000000
35.819835 19.451448 4.000000
32.917021 25.287882 4.000000
37.936455 35.181519 4.000000
25.413335 29.924372 4.000000
32.826324 34.189682 4.000000
32.726524 -0.291858 4.000000
30.895861 -9.487094 4.000000
31.695217 -1.651005 4.000000
35.727394 1.482093 4.000000
35.236385 8.811855 4.000000
32.828153 3.387397 4.000000
38.976217 7.915286 4.000000
38.545301 13.624670 4.000000
34.293947 15.328560 4.000000
37.609880 11.376168 4.000000
31.361219 9.520582 4.000000
37.471238 14.399082 4.000000
32.164375 12.913625 4.000000
36.981432 18.794070 4.000000
35.769111 18.355955 4.000000
38.386150 15.674554 4.000000
37.156340 17.970547 4.000000
30.900985 20.682950 4.000000
33.564393 24.123007 4.000000
35.364699 21.496905 4.000000
35.354364 24.644833 4.000000
30.030040 27.485793 4.000000
31.902701 32.439107 4.000000
30.897271 38.671435 4.000000
32.210910 27.657140 4.000000
32.206257 -3.414697 4.000000
36.201992 -3.355029 4.000000
32.771870 5.146714 4.000000
33.565093 0.707966 4.000000
34.074882 4.831291 4.000000
42.955667 6.816319 4.000000
29.006962 7.139335 4.000000
36.281551 12.666727 4.000000
32.786670 8.841424 4.000000
37.242144 16.574401 4.000000
36.024614 12.899753 4.000000
37.472748 4.434513 4.000000
36.509621 12.544252 4.000000
37.258137 14.575024 4.000000
36.452024 17.495342 4.000000
37.930478 14.461346 4.000000
32.763294 15.931561 4.000000
34.682385 14.906229 4.000000
30.341271 21.805990 4.000000
33.709526 24.532103 4.000000
35.013063 20.562428 4.000000
28.167709 32.127869 4.000000
36.502118 27.138153 4.000000
33.740652 27.208186 4.000000
32.561781 32.856798 4.000000
30.063258 -9.291959 4.000000
32.368534 -8.223837 4.000000
34.253704 12.855993 4.000000
34.615385 4.751488 4.000000
38.780611 11.787217 4.000000
31.929010 8.536449 4.000000
36.567039 8.319601 4.000000
31.436531 9.208849 4.000000
33.619850 11.511408 4.000000
36.821933 12.929738 4.000000
39.834060 11.960068 4.000000
38.490774 11.490679 4.000000
34.623415 22.222571 4.000000
35.079699 18.636084 4.000000
38.861987 19.348693 4.000000
34.802587 18.819685 4.000000
37.132215 19.275747 4.000000
39.791483 23.083824 4.000000
33.543425 20.885434 4.000000
35.516615 22.618429 4.000000
36.298944 29.393031 4.000000
30.042149 28.884650 4.000000
40.392619 19.376238 4.000000
34.118671 37.063175 4.000000
30.940330 36.812007 4.000000
29.825691 -3.287770 4.000000
32.330877 -7.136866 4.000000
37.878845 0.064022 4.000000
37.063063 5.985562 4.000000
35.312467 4.213332 4.000000
36.315425 7.430048 4.000000
35.381601 5.265517 4.000000
30.299252 6.077068 4.000000
34.379250 12.272988 4.000000
38.988778 12.670406 4.000000
38.029963 8.243167 4.000000
36.778139 12.038686 4.000000
40.668152 19.004661 4.000000
39.866113 15.743365 4.000000
37.161429 23.323146 4.000000
35.382749 18.596297 4.000000
35.105773 19.147743 4.000000
34.721282 20.404047 4.000000
36.503143 20.906703 4.000000
36.559595 25.567085 4.000000
40.167083 21.266319 4.000000
33.077861 20.953836 4.000000
34.357598 38.498530 4.000000
29.153029 34.442516 4.000000
35.038381 36.694381 4.000000
32.881646 -3.118326 4.000000
34.265048 -3.884184 4.000000
30.967756 -5.826246 4.000000
35.272241 -0.435502 4.000000
33.818701 3.804040 4.000000
38.965477 3.512269 4.000000
38.314201 6.500336 4.000000
44.470788 7.894833 4.000000
34.466600 10.702177 4.000000
39.953939 10.888528 4.000000
31.929136 11.286770 4.000000
38.851703 16.500563 4.000000
34.849576 13.620408 4.000000
38.958035 16.995109 4.000000
41.574903 13.769027 4.000000
33.610502 21.915755 4.000000
36.338004 17.014267 4.000000
32.734443 19.402556 4.000000
[...]
POINT_DATA 1250
SCALARS m double
LOOKUP_TABLE default
1.000000
1.000000
1.000000
1.000000
1.000000
1.000000
1.000000
1.000000
1.000000
1.000000
1.000000
1.000000
1.000000
1.000000
1.000000
1.000000
1.000000
1.000000
1.000000
1.000000
1.000000
1.000000
1.000000
1.000000
1.000000
1.000000
1.000000
1.000000
1.000000
1.000000
1.000000
1.000000
1.000000
1.000000
1.000000
1.000000
1.000000
1.000000
1.000000
1.000000
1.000000
1.000000
1.000000
1.000000
1.000000
1.000000
1.000000
1.000000
1.000000
1.000000
1.000000
1.000000
1.000000
1.000000
1.000000
1.000000
1.000000
1.000000
1.000000
1.000000
1.000000
1.000000
1.000000
1.000000
1.000000
1.000000
1.000000
1.000000
1.000000
1.000000
1.000000
1.000000
1.000000
1.000000
1.000000
1.000000
1.000000
1.000000
1.000000
1.000000
1.000000
1.000000
1.000000
1.000000
1.000000
1.000000
1.000000
1.000000
1.000000
1.000000
1.000000
1.000000
1.000000
1.000000
1.000000
1.000000
1.000000
1.000000
1.000000
1.000000
1.000000
1.000000
1.000000
1.000000
1.000000
1.000000
1.000000
1.000000
1.000000
1.000000
1.000000
1.000000
1.000000
1.000000
1.000000
1.000000
1.000000
1.000000
1.000000
1.000000
1.000000
1.000000
1.000000
1.000000
1.000000
1.000000
1.000000
1.000000
1.000000
1.000000
1.000000
1.000000
1.000000
1.000000
1.000000
1.000000
1.000000
1.000000
1.000000
1.000000
1.000000
1.000000
1.000000
1.000000
1.000000
1.000000
1.000000
1.000000
1.000000
1.000000
1.000000
1.000000
1.000000
1.000000
1.000000
1.000000
1.000000
1.000000
1.000000
1.000000
1.000000
1.000000
1.000000
1.000000
1.000000
1.000000
1.000000
1.000000
1.000000
1.000000
1.000000
1.000000
1.000000
1.000000
1.000000
1.000000
1.000000
1.000000
1.000000
1.000000
1.000000
1.000000
1.000000
1.000000
1.000000
1.000000
1.000000
1.000000
1.000000
1.000000
1.000000
1.000000
1.000000
1.000000
1.000000
1.000000
1.000000
1.000000
1.000000
1.000000
1.000000
1.000000
1.000000
1.000000
1.000000
1.000000
1.000000
1.000000
1.000000
1.000000
1.000000
1.000000
1.000000
1.000000
1.000000
1.000000
1.000000
1.000000
1.000000
1.000000
1.000000
1.000000
1.000000
1.000000
1.000000
1.000000
1.000000
1.000000
1.000000
1.000000
1.000000
1.000000
1.000000
1.000000
1.000000
1.000000
1.000000
1.000000
1.000000
1.000000
1.000000
1.000000
1.000000
1.000000
1.000000
1.000000
1.000000
1.000000
1.000000
1.000000
1.000000
1.000000
1.000000
1.000000
1.000000
1.000000
1.000000
1.000000
1.000000
1.000000
1.000000
1.000000
1.000000
1.000000
1.000000
1.000000
1.000000
1.000000
1.000000
1.000000
1.000000
1.000000
1.000000
1.000000
1.000000
1.000000
1.000000
1.000000
1.000000
1.000000
1.000000
1.000000
1.000000
1.000000
1.000000
1.000000
1.000000
1.000000
1.000000
1.000000
1.000000
1.000000
1.000000
1.000000
1.000000
1.000000
1.000000
1.000000
1.000000
1.000000
1.000000
1.000000
1.000000
1.000000
1.000000
1.000000
1.000000
1.000000
1.000000
1.000000
1.000000
1.000000
1.000000
1.000000
1.000000
1.000000
1.000000
1.000000
1.000000
1.000000
1.000000
1.000000
1.000000
1.000000
1.000000
1.000000
1.000000
1.000000
1.000000
1.000000
1.000000
1.000000
1.000000
1.000000
1.000000
1.000000
1.000000
1.000000
1.000000
1.000000
1.000000
1.000000
1.000000
1.000000
1.000000
1.000000
1.000000
1.000000
1.000000
1.000000
1.000000
1.000000
1.000000
1.000000
1.000000
1.000000
1.000000
1.000000
1.000000
1.000000
1.000000
1.000000
1.000000
1.000000
1.000000
1.000000
1.000000
1.000000
1.000000
1.000000
1.000000
1.000000
1.000000
1.000000
1.000000
1.000000
1.000000
1.000000
1.000000
1.000000
1.000000
1.000000
1.000000
1.000000
1.000000
1.000000
1.000000
1.000000
1.000000
1.000000
1.000000
1.000000
1.000000
1.000000
1.000000
1.000000
1.000000
1.000000
1.000000
1.000000
1.000000
1.000000
1.000000
1.000000
1.000000
1.000000
1.000000
1.000000
1.000000
1.000000
1.000000
1.000000
1.000000
1.000000
1.000000
1.000000
1.000000
1.000000
1.000000
1.000000
1.000000
1.000000
1.000000
1.000000
1.000000
1.000000
1.000000
1.000000
1.000000
1.000000
1.000000
1.000000
1.000000
1.000000
1.000000
1.000000
1.000000
1.000000
1.000000
1.000000
1.000000
1.000000
1.000000
1.000000
1.000000
1.000000
1.000000
1.000000
1.000000
1.000000
1.000000
1.000000
1.000000
1.000000
1.000000
1.000000
1.000000
1.000000
1.000000
1.000000
1.000000
1.000000
1.000000
1.000000
1.000000
1.000000
1.000000
1.000000
1.000000
1.000000
1.000000
1.000000
1.000000
1.000000
1.000000
1.000000
1.000000
1.000000
1.000000
1.000000
1.000000
1.000000
1.000000
1.000000
1.000000
1.000000
1.000000
1.000000
1.000000
1.000000
1.000000
1.000000
1.000000
1.000000
1.000000
1.000000
1.000000
1.000000
1.000000
1.000000
1.000000
1.000000
1.000000
1.000000
1.000000
1.000000
1.000000
1.000000
1.000000
1.000000
1.000000
1.000000
1.000000
1.000000
1.000000
1.000000
1.000000
1.000000
1.000000
1.000000
1.000000
1.000000
1.000000
1.000000
1.000000
1.000000
1.000000
1.000000
1.000000
1.000000
1.000000
1.000000
1.000000
1.000000
1.000000
1.000000
1.000000
1.000000
1.000000
1.000000
1.000000
1.000000
1.000000
1.000000
1.000000
1.000000
1.000000
1.000000
1.000000
1.000000
1.000000
1.000000
1.000000
1.000000
1.000000
1.000000
1.000000
1.000000
1.000000
1.000000
1.000000
1.000000
1.000000
1.000000
1.000000
1.000000
1.000000
1.000000
1.000000
1.000000
1.000000
1.000000
1.000000
1.000000
1.000000
1.000000
1.000000
1.000000
1.000000
1.000000
1.000000
1.000000
1.000000
1.000000
1.000000
1.000000
1.000000
1.000000
1.000000
1.000000
1.000000
1.000000
1.000000
1.000000
1.000000
1.000000
1.000000
1.000000
1.000000
1.000000
1.000000
1.000000
1.000000
1.000000
1.000000
1.000000
1.000000
1.000000
1.000000
1.000000
1.000000
1.000000
1.000000
1.000000
1.000000
1.000000
1.000000
1.000000
1.000000
1.000000
1.000000
1.000000
1.000000
1.000000
1.000000
1.000000
1.000000
1.000000
1.000000
1.000000
1.000000
1.000000
1.000000
1.000000
1.000000
1.000000
1.000000
1.000000
1.000000
1.000000
1.000000
1.000000
1.000000
1.000000
1.000000
1.000000
1.000000
1.000000
1.000000
1.000000
1.000000
1.000000
1.000000
1.000000
1.000000
1.000000
1.000000
1.000000
1.000000
1.000000
1.000000
1.000000
1.000000
1.000000
1.000000
1.000000
1.000000
1.000000
1.000000
1.000000
1.000000
1.000000
1.000000
1.000000
1.000000
1.000000
1.000000
1.000000
1.000000
1.000000
1.000000
1.000000
1.000000
1.000000
1.000000
1.000000
1.000000
1.000000
1.000000
1.000000
1.000000
1.000000
1.000000
1.000000
1.000000
1.000000
1.000000
1.000000
1.000000
1.000000
1.000000
1.000000
1.000000
1.000000
1.000000
1.000000
1.000000
1.000000
1.000000
1.000000
1.000000
1.000000
1.000000
1.000000
1.000000
1.000000
1.000000
1.000000
1.000000
1.000000
1.000000
1.000000
1.000000
1.000000
1.000000
1.000000
1.000000
1.000000
1.000000
1.000000
1.000000
1.000000
1.000000
1.000000
1.000000
1.000000
1.000000
1.000000
1.000000
1.000000
1.000000
1.000000
1.000000
1.000000
1.000000
1.000000
1.000000
1.000000
1.000000
1.000000
1.000000
1.000000
1.000000
1.000000
1.000000
1.000000
1.000000
1.000000
1.000000
1.000000
1.000000
1.000000
1.000000
1.000000
1.000000
1.000000
1.000000
1.000000
1.000000
1.000000
1.000000
1.000000
1.000000
1.000000
1.000000
1.000000
1.000000
1.000000
1.000000
1.000000
1.000000
1.000000
1.000000
1.000000
1.000000
1.000000
1.000000
1.000000
1.000000
1.000000
1.000000
1.000000
1.000000
1.000000
1.000000
1.000000
1.000000
1.000000
1.000000
1.000000
1.000000
1.000000
1.000000
1.000000
1.000000
1.000000
1.000000
1.000000
1.000000
1.000000
1.000000
1.000000
1.000000
1.000000
1.000000
1.000000
1.000000
1.000000
1.000000
1.000000
1.000000
1.000000
1.000000
1.000000
1.000000
1.000000
1.000000
1.000000
1.000000
1.000000
1.000000
1.000000
1.000000
1.000000
1.000000
1.000000
1.000000
1.000000
1.000000
1.000000
1.000000
1.000000
1.000000
1.000000
1.000000
1.000000
1.000000
1.000000
1.000000
1.000000
1.000000
1.000000
1.000000
1.000000
1.000000
1.000000
1.000000
1.000000
1.000000
1.000000
1.000000
1.000000
1.000000
1.000000
1.000000
1.000000
1.000000
1.000000
1.000000
1.000000
1.000000
1.000000
1.000000
1.000000
1.000000
1.000000
1.000000
1.000000
1.000000
1.000000
1.000000
1.000000
1.000000
1.000000
1.000000
1.000000
1.000000
1.000000
1.000000
1.000000
1.000000
1.000000
1.000000
1.000000
1.000000
1.000000
1.000000
1.000000
1.000000
1.000000
1.000000
1.000000
1.000000
1.000000
1.000000
1.000000
1.000000
1.000000
1.000000
1.000000
1.000000
1.000000
1.000000
1.000000
1.000000
1.000000
1.000000
1.000000
1.000000
1.000000
1.000000
1.000000
1.000000
1.000000
1.000000
1.000000
1.000000
1.000000
1.000000
1.000000
1.000000
1.000000
1.000000
1.000000
1.000000
1.000000
1.000000
1.000000
1.000000
1.000000
1.000000
1.000000
1.000000
1.000000
1.000000
1.000000
1.000000
1.000000
1.000000
1.000000
1.000000
1.000000
1.000000
1.000000
1.000000
1.000000
1.000000
1.000000
1.000000
1.000000
1.000000
1.000000
1.000000
1.000000
1.000000
1.000000
1.000000
1.000000
1.000000
1.000000
1.000000
1.000000
1.000000
1.000000
1.000000
1.000000
1.000000
1.000000
1.000000
1.000000
1.000000
1.000000
1.000000
1.000000
1.000000
1.000000
1.000000
1.000000
1.000000
1.000000
1.000000
1.000000
1.000000
1.000000
1.000000
1.000000
1.000000
1.000000
1.000000
1.000000
1.000000
1.000000
1.000000
1.000000
1.000000
1.000000
1.000000
1.000000
1.000000
1.000000
1.000000
1.000000
1.000000
1.000000
1.000000
1.000000
1.000000
1.000000
1.000000
1.000000
1.000000
1.000000
1.000000
1.000000
1.000000
1.000000
1.000000
1.000000
1.000000
1.000000
1.000000
1.000000
1.000000
1.000000
1.000000
1.000000
1.000000
1.000000
1.000000
1.000000
1.000000
1.000000
1.000000
1.000000
1.000000
1.000000
1.000000
1.000000
1.000000
1.000000
1.000000
1.000000
1.000000
1.000000
1.000000
1.000000
1.000000
1.000000
1.000000
1.000000
1.000000
1.000000
1.000000
1.000000
1.000000
1.000000
1.000000
1.000000
1.000000
1.000000
1.000000
1.000000
1.000000
1.000000
1.000000
1.000000
1.000000
1.000000
1.000000
1.000000
1.000000
1.000000
1.000000
1.000000
1.000000
1.000000
1.000000
1.000000
1.000000
1.000000
1.000000
1.000000
1.000000
1.000000
1.000000
1.000000
1.000000
1.000000
1.000000
1.000000
1.000000
1.000000
1.000000
1.000000
1.000000
1.000000
1.000000
1.000000
1.000000
1.000000
1.000000
1.000000
1.000000
1.000000
1.000000
1.000000
1.000000
1.000000
1.000000
1.000000
1.000000
1.000000
1.000000
1.000000
1.000000
1.000000
1.000000
1.000000
1.000000
1.000000
1.000000
1.000000
1.000000
1.000000
1.000000
1.000000
1.000000
1.000000
1.000000
1.000000
1.000000
1.000000
1.000000
1.000000
1.000000
1.000000
1.000000
1.000000
1.000000
1.000000
1.000000
1.000000
1.000000
1.000000
1.000000
1.000000
1.000000
1.000000
1.000000
1.000000
1.000000
1.000000
1.000000
1.000000
1.000000
1.000000
1.000000
1.000000
1.000000
1.000000
1.000000
1.000000
1.000000
1.000000
1.000000
1.000000
1.000000
1.000000
1.000000
1.000000
1.000000
1.000000
1.000000
1.000000
1.000000
1.000000
1.000000
1.000000
1.000000
1.000000
1.000000
1.000000
1.000000
1.000000
1.000000
1.000000
1.000000
1.000000
1.000000
1.000000
1.000000
1.000000
1.000000
1.000000
1.000000
1.000000
1.000000
1.000000
1.000000
1.000000
1.000000
1.000000
1.000000
1.000000
1.000000
1.000000
1.000000
1.000000
1.000000
1.000000
1.000000
1.000000
1.000000
1.000000
1.000000
1.000000
1.000000
1.000000
1.000000
1.000000
1.000000
1.000000
1.000000
1.000000
1.000000
1.000000
1.000000
1.000000
1.000000
1.000000
1.000000
1.000000
1.000000
1.000000
1.000000
1.000000
1.000000
1.000000
1.000000
1.000000
VECTORS v double
-8.537370 -13.362978 0.000000
-1.900414 -7.590627 0.000000
0.138546 -1.099787 0.000000
6.441039 3.763085 0.000000
-6.672683 0.659204 0.000000
-0.961359 4.808313 0.000000
-13.811313 2.024225 0.000000
-7.737417 -1.059049 0.000000
12.386059 -1.945399 0.000000
-4.113210 2.943183 0.000000
1.799337 -12.708668 0.000000
-0.404354 -5.873254 0.000000
6.374510 -5.107876 0.000000
-7.581082 11.250903 0.000000
-2.237802 2.315757 0.000000
8.918758 1.870755 0.000000
1.866360 3.365846 0.000000
3.132614 10.278812 0.000000
6.623889 7.261849 0.000000
4.215733 7.574097 0.000000
10.143206 6.376461 0.000000
7.145028 12.157185 0.000000
-3.964681 5.030717 0.000000
-2.613369 19.243021 0.000000
1.256595 3.564056 0.000000
2.630965 -13.726701 0.000000
-2.248629 0.197574 0.000000
5.364037 -9.594237 0.000000
0.194458 -7.488164 0.000000
17.216052 -6.419301 0.000000
2.083344 -6.753447 0.000000
1.671432 -3.385757 0.000000
4.090461 -6.750610 0.000000
-11.684884 -6.634945 0.000000
-4.841320 2.490636 0.000000
14.148691 7.007009 0.000000
-1.370439 4.120732 0.000000
-0.377050 -5.389347 0.000000
4.812340 3.394311 0.000000
3.082991 -12.893455 0.000000
3.024863 -3.917447 0.000000
4.845476 9.223081 0.000000
-12.568822 5.148649 0.000000
10.264496 9.482209 0.000000
-3.998015 8.834049 0.000000
-4.100574 6.971402 0.000000
0.781241 1.974191 0.000000
5.252147 9.458227 0.000000
-0.361810 8.013491 0.000000
2.630965 13.726701 0.000000
-0.082812 -9.568043 0.000000
-7.988192 -10.038561 0.000000
-6.912544 -5.724447 0.000000
-4.139139 3.647836 0.000000
-10.409677 -12.936456 0.000000
14.389537 -1.073801 0.000000
-7.711783 6.778848 0.000000
-2.412840 5.089137 0.000000
4.405815 5.559111 0.000000
11.952635 9.819885 0.000000
9.441190 -2.704573 0.000000
3.945269 -4.784623 0.000000
5.144402 3.360608 0.000000
2.358385 5.881452 0.000000
-12.258294 -1.718481 0.000000
1.164058 -8.971442 0.000000
-12.974316 -1.997158 0.000000
8.384244 12.281021 0.000000
2.166428 -11.187318 0.000000
-12.472244 5.163399 0.000000
-5.891942 -3.224374 0.000000
-15.300101 11.854664 0.000000
-4.209070 6.735723 0.000000
-4.204895 10.192878 0.000000
-0.279488 9.469103 0.000000
0.870487 -6.799510 0.000000
6.835050 -10.617898 0.000000
-0.782608 -1.404479 0.000000
3.630931 -3.292843 0.000000
-4.453883 -4.104671 0.000000
4.797865 -1.891193 0.000000
-1.722005 7.310512 0.000000
-4.085158 -2.241307 0.000000
6.027484 2.557145 0.000000
-4.627197 -12.248155 0.000000
1.407888 2.000891 0.000000
2.141442 -9.293112 0.000000
-0.138943 -10.817590 0.000000
7.751964 0.234369 0.000000
-9.788214 5.232506 0.000000
-1.194452 -5.720785 0.000000
1.804785 9.145687 0.000000
8.037155 -10.135977 0.000000
-3.709679 -4.442141 0.000000
-2.592004 -9.058117 0.000000
-4.169328 10.766285 0.000000
3.907919 7.128046 0.000000
4.876803 -8.185579 0.000000
6.835055 10.617898 0.000000
8.753604 6.234691 0.000000
-9.633698 0.042695 0.000000
12.287742 -3.964250 0.000000
5.184212 -11.656642 0.000000
0.493348 -15.206967 0.000000
6.135393 -2.246372 0.000000
-1.721677 -4.872731 0.000000
2.742417 -6.037719 0.000000
-0.602676 3.986927 0.000000
-0.431538 -7.213894 0.000000
-11.873481 -8.427568 0.000000
3.899905 -0.630035 0.000000
5.540100 -3.821694 0.000000
8.073440 -1.468157 0.000000
7.078598 -1.916933 0.000000
5.437995 3.369428 0.000000
0.222406 -5.495849 0.000000
8.193339 5.702917 0.000000
-2.364208 16.614726 0.000000
-1.041922 -8.183543 0.000000
0.648383 0.225120 0.000000
5.516971 -2.033108 0.000000
-3.201886 8.752353 0.000000
-1.014930 18.016634 0.000000
-0.444772 7.180689 0.000000
-7.154580 18.169052 0.000000
4.707295 -4.565489 0.000000
-0.238972 -17.691414 0.000000
-12.014300 -0.422662 0.000000
-12.474456 -7.017496 0.000000
-0.949942 1.743130 0.000000
8.656833 -5.718933 0.000000
2.979075 3.359720 0.000000
1.725556 -19.280170 0.000000
-2.903757 5.601460 0.000000
4.221231 -1.650946 0.000000
-2.615781 5.449678 0.000000
-0.680428 2.156820 0.000000
-0.017279 -7.923120 0.000000
10.958896 -14.550978 0.000000
-1.446426 -3.217555 0.000000
-3.271234 -11.190187 0.000000
-6.610639 -6.119707 0.000000
-8.738469 2.376547 0.000000
-4.682423 -3.434641 0.000000
-3.655949 7.638573 0.000000
6.352735 -10.115788 0.000000
-1.662476 1.054698 0.000000
10.628282 -9.083992 0.000000
-1.995605 10.927773 0.000000
-3.767284 9.282454 0.000000
-2.739610 -6.598094 0.000000
2.758072 -12.815694 0.000000
3.166159 -10.665021 0.000000
4.061200 1.829301 0.000000
6.629947 5.094719 0.000000
13.547830 -5.190151 0.000000
-1.963273 4.101425 0.000000
-1.856569 -7.276637 0.000000
-1.457972 -18.209833 0.000000
0.938239 -0.754964 0.000000
-3.951078 -1.449582 0.000000
6.751643 -1.408838 0.000000
-8.492502 -0.640060 0.000000
-18.868607 -9.061491 0.000000
-0.696343 7.971270 0.000000
3.673330 -4.850618 0.000000
2.423235 4.052097 0.000000
-3.649017 -6.418185 0.000000
6.265995 8.367150 0.000000
-0.399040 3.502517 0.000000
2.725615 15.423066 0.000000
-8.078782 3.609212 0.000000
-2.436917 4.152828 0.000000
3.237903 3.099906 0.000000
2.619425 6.932104 0.000000
4.837053 -9.997753 0.000000
-5.353536 -8.972885 0.000000
-5.197516 -6.142338 0.000000
-3.160871 -6.685607 0.000000
-1.804122 -9.886135 0.000000
7.115474 -7.982395 0.000000
5.353371 -2.412939 0.000000
-8.584478 4.355530 0.000000
1.196460 -5.073368 0.000000
-5.745552 -5.606176 0.000000
2.817028 19.082662 0.000000
-7.042908 0.599449 0.000000
-6.292990 -4.864992 0.000000
-4.297143 5.436164 0.000000
1.440912 -0.236603 0.000000
-0.546547 -7.941845 0.000000
3.308722 1.526829 0.000000
-3.252999 -4.841913 0.000000
1.787186 11.719979 0.000000
-5.033334 1.860862 0.000000
0.779524 -11.491903 0.000000
6.738890 -1.982194 0.000000
-1.109942 5.722002 0.000000
4.576948 -0.446942 0.000000
4.837053 9.997753 0.000000
-11.685267 -2.369311 0.000000
11.921471 -4.856648 0.000000
3.581007 -20.254124 0.000000
-1.560751 -2.894627 0.000000
5.009806 -7.630011 0.000000
0.465127 -3.345775 0.000000
12.989832 -4.472754 0.000000
-6.128219 -0.909283 0.000000
-8.780919 0.369788 0.000000
-9.533312 -7.467654 0.000000
-0.037230 2.030887 0.000000
1.260032 0.664229 0.000000
2.756232 -2.223517 0.000000
4.957581 1.742630 0.000000
-2.695722 -0.977631 0.000000
7.948836 0.162387 0.000000
2.889245 0.856991 0.000000
5.677929 2.384891 0.000000
-3.045129 14.519542 0.000000
-0.615791 1.880486 0.000000
3.959679 -2.412686 0.000000
-8.102208 7.896305 0.000000
0.925166 7.847211 0.000000
1.315731 7.180162 0.000000
-7.924580 8.712165 0.000000
-0.554777 -11.402066 0.000000
-3.936157 -8.246459 0.000000
-2.115177 -3.756687 0.000000
4.988014 -6.666612 0.000000
-8.940511 -2.920867 0.000000
-7.401721 8.935674 0.000000
4.510974 4.217300 0.000000
0.558008 6.422867 0.000000
7.207735 4.526286 0.000000
0.500327 -5.569876 0.000000
-5.964968 -4.463866 0.000000
5.273195 0.542093 0.000000
-7.360811 -4.327307 0.000000
-8.232956 2.246263 0.000000
3.708548 10.800357 0.000000
1.568658 8.304836 0.000000
-12.510611 8.864396 0.000000
3.166653 6.137888 0.000000
7.579002 0.215068 0.000000
-14.104147 -0.376770 0.000000
4.581684 -2.772177 0.000000
-3.641167 11.091419 0.000000
-2.328974 7.989383 0.000000
-3.931418 8.248030 0.000000
-0.855762 -2.113781 0.000000
1.999551 0.300685 0.000000
5.490505 -5.648356 0.000000
-10.652327 2.193869 0.000000
4.009168 -4.279131 0.000000
-2.928013 -4.039278 0.000000
10.415297 -5.898966 0.000000
9.867014 -8.459191 0.000000
12.201530 -0.617396 0.000000
-6.801097 -0.840129 0.000000
-14.632554 9.895216 0.000000
-4.409921 -10.728084 0.000000
-7.769226 -0.000565 0.000000
-5.891581 -11.063506 0.000000
5.132349 0.715102 0.000000
-6.373163 7.731312 0.000000
-1.935429 4.370278 0.000000
0.177850 -3.076192 0.000000
2.420515 2.851442 0.000000
0.387491 6.079991 0.000000
-8.056288 18.287944 0.000000
-8.610039 -5.408150 0.000000
-5.825956 9.403696 0.000000
-1.071520 -3.516182 0.000000
3.240117 10.101965 0.000000
7.655799 10.210681 0.000000
-4.025587 -15.920856 0.000000
-3.022273 -14.328503 0.000000
-6.303177 3.245058 0.000000
10.919555 5.316968 0.000000
9.660465 -6.915173 0.000000
-10.423044 -9.627740 0.000000
0.702340 -3.640147 0.000000
-8.194166 3.415475 0.000000
-8.962599 -0.202156 0.000000
-0.029323 -3.961943 0.000000
17.550186 -5.480955 0.000000
14.080299 -4.180250 0.000000
-6.671800 11.385238 0.000000
-0.432599 10.556248 0.000000
3.682988 10.995544 0.000000
8.227737 11.150965 0.000000
-4.508968 -4.095346 0.000000
3.399688 6.659134 0.000000
-0.563565 1.545297 0.000000
0.671721 -5.399243 0.000000
-3.192047 5.989894 0.000000
-4.403628 4.281045 0.000000
-2.922539 2.696811 0.000000
2.165029 11.756596 0.000000
2.340706 8.329971 0.000000
-7.020627 -8.327333 0.000000
6.886092 -16.468129 0.000000
-11.662076 -6.098929 0.000000
-5.074011 -4.470046 0.000000
1.137593 1.622888 0.000000
-6.436931 -9.860247 0.000000