# vtk DataFile Version 4.0
hesp visualization file
ASCII
DATASET UNSTRUCTURED_GRID
POINTS 1250 double
33.241098 2.145192 4.000000
31.085029 3.899332 4.000000
31.636478 3.706284 4.000000
30.966812 4.487958 4.000000
30.351067 6.106613 4.000000
30.151819 6.734761 4.000000
30.151728 7.857234 4.000000
30.151728 8.979696 4.000000
30.151728 10.102158 4.000000
30.151728 11.224620 4.000000
30.151728 12.347083 4.000000
30.151728 13.469545 4.000000
30.151728 14.592007 4.000000
30.151728 15.714469 4.000000
30.151728 16.836931 4.000000
30.151728 17.959393 4.000000
30.151728 19.081855 4.000000
30.151728 20.204317 4.000000
30.151728 21.326780 4.000000
30.151818 22.449252 4.000000
30.351030 23.077358 4.000000
30.966828 24.696171 4.000000
31.637358 25.478545 4.000000
31.084976 25.282214 4.000000
33.241067 27.038810 4.000000
30.975094 -3.427965 4.000000
32.560073 1.848536 4.000000
30.943825 2.463463 4.000000
30.519142 4.158823 4.000000
31.056893 6.510325 4.000000
31.165155 6.893214 4.000000
31.174886 7.857233 4.000000
31.174886 8.979696 4.000000
31.174886 10.102158 4.000000
31.174886 11.224620 4.000000
31.174886 12.347083 4.000000
31.174886 13.469545 4.000000
31.174886 14.592007 4.000000
31.174886 15.714469 4.000000
31.174886 16.836931 4.000000
31.174886 17.959393 4.000000
31.174886 19.081855 4.000000
31.174886 20.204317 4.000000
31.174886 21.326780 4.000000
31.165163 22.290826 4.000000
31.056894 22.673684 4.000000
30.518555 25.026934 4.000000
30.943127 26.720035 4.000000
32.560072 27.335479 4.000000
30.975094 32.611978 4.000000
30.131767 0.958471 4.000000
31.531321 2.711123 4.000000
31.007476 5.200937 4.000000
32.075777 5.183629 4.000000
31.478910 5.600920 4.000000
31.477926 6.734671 4.000000
31.478105 7.857233 4.000000
31.478105 8.979696 4.000000
31.478105 10.102158 4.000000
31.478105 11.224620 4.000000
31.478105 12.347083 4.000000
31.478105 13.469545 4.000000
31.478105 14.592007 4.000000
31.478105 15.714469 4.000000
31.478105 16.836931 4.000000
31.478105 17.959393 4.000000
31.478105 19.081855 4.000000
31.478105 20.204317 4.000000
31.478105 21.326780 4.000000
31.477926 22.449342 4.000000
31.478909 23.583074 4.000000
32.076386 24.001084 4.000000
31.007434 23.983134 4.000000
31.531270 26.472945 4.000000
30.131768 28.225542 4.000000
31.746748 -0.803894 4.000000
31.484024 -0.437776 4.000000
33.085017 4.030996 4.000000
31.752883 4.073554 4.000000
32.521879 5.619896 4.000000
32.501752 6.734797 4.000000
32.501772 7.857234 4.000000
32.501773 8.979696 4.000000
32.501773 10.102158 4.000000
32.501773 11.224620 4.000000
32.501773 12.347083 4.000000
32.501773 13.469545 4.000000
32.501773 14.592007 4.000000
32.501773 15.714469 4.000000
32.501773 16.836931 4.000000
32.501773 17.959393 4.000000
32.501773 19.081855 4.000000
32.501773 20.204317 4.000000
32.501772 21.326779 4.000000
32.501752 22.449216 4.000000
32.521862 23.564129 4.000000
31.752480 25.109453 4.000000
33.084951 25.152515 4.000000
31.484023 29.621789 4.000000
31.746748 29.987908 4.000000
34.377836 3.149667 4.000000
30.152641 2.908661 4.000000
32.066441 2.634034 4.000000
33.343402 5.097461 4.000000
32.804414 5.612189 4.000000
32.804364 6.734773 4.000000
32.804364 7.857234 4.000000
32.804364 8.979696 4.000000
32.804364 10.102158 4.000000
32.804364 11.224620 4.000000
32.804364 12.347083 4.000000
32.804364 13.469545 4.000000
32.804364 14.592007 4.000000
32.804364 15.714469 4.000000
32.804364 16.836931 4.000000
32.804364 17.959393 4.000000
32.804364 19.081855 4.000000
32.804364 20.204317 4.000000
32.804364 21.326779 4.000000
32.804364 22.449240 4.000000
32.804414 23.571824 4.000000
33.338924 24.085513 4.000000
32.066698 26.550465 4.000000
30.152645 26.275348 4.000000
34.377835 26.034343 4.000000
31.120096 0.222981 4.000000
33.050164 0.777569 4.000000
34.564101 4.002029 4.000000
33.281920 4.191967 4.000000
33.828831 5.612329 4.000000
33.828865 6.734771 4.000000
33.828866 7.857234 4.000000
33.828866 8.979696 4.000000
33.828866 10.102158 4.000000
33.828866 11.224620 4.000000
33.828866 12.347083 4.000000
33.828866 13.469545 4.000000
33.828866 14.592007 4.000000
33.828866 15.714469 4.000000
33.828866 16.836931 4.000000
33.828866 17.959393 4.000000
33.828866 19.081855 4.000000
33.828866 20.204317 4.000000
33.828866 21.326779 4.000000
33.828865 22.449242 4.000000
33.828831 23.571685 4.000000
33.286744 24.993549 4.000000
34.563759 25.181736 4.000000
33.050192 28.406451 4.000000
31.120095 28.961032 4.000000
31.945065 2.301222 4.000000
35.826245 2.612403 4.000000
33.240466 3.189619 4.000000
34.131072 4.480352 4.000000
34.130636 5.612292 4.000000
34.130637 6.734772 4.000000
34.130637 7.857234 4.000000
34.130637 8.979696 4.000000
34.130637 10.102158 4.000000
34.130637 11.224620 4.000000
34.130637 12.347083 4.000000
34.130637 13.469545 4.000000
34.130637 14.592007 4.000000
34.130637 15.714469 4.000000
34.130637 16.836931 4.000000
34.130637 17.959393 4.000000
34.130637 19.081855 4.000000
34.130637 20.204317 4.000000
34.130637 21.326779 4.000000
34.130637 22.449241 4.000000
34.130636 23.571721 4.000000
34.131108 24.705748 4.000000
33.240495 25.994582 4.000000
35.826192 26.571673 4.000000
31.945096 26.882758 4.000000
36.487613 -1.715380 4.000000
33.746419 3.951481 4.000000
35.367252 3.121202 4.000000
35.082367 4.531919 4.000000
35.156023 5.612320 4.000000
35.156023 6.734772 4.000000
35.156023 7.857234 4.000000
35.156023 8.979696 4.000000
35.156023 10.102158 4.000000
35.156023 11.224620 4.000000
35.156023 12.347083 4.000000
35.156023 13.469545 4.000000
35.156023 14.592007 4.000000
35.156023 15.714469 4.000000
35.156023 16.836931 4.000000
35.156023 17.959393 4.000000
35.156023 19.081855 4.000000
35.156023 20.204317 4.000000
35.156023 21.326779 4.000000
35.156023 22.449241 4.000000
35.156023 23.571694 4.000000
35.083747 24.650261 4.000000
35.366935 26.062632 4.000000
33.746473 25.232336 4.000000
36.487613 30.899393 4.000000
33.802527 2.771769 4.000000
35.633243 2.270793 4.000000
35.322892 4.376866 4.000000
35.870475 4.853320 4.000000
35.457005 5.612302 4.000000
35.457004 6.734772 4.000000
35.457004 7.857234 4.000000
35.457004 8.979696 4.000000
35.457004 10.102158 4.000000
35.457004 11.224620 4.000000
35.457004 12.347083 4.000000
35.457004 13.469545 4.000000
35.457004 14.592007 4.000000
35.457004 15.714469 4.000000
35.457004 16.836931 4.000000
35.457004 17.959393 4.000000
35.457004 19.081855 4.000000
35.457004 20.204317 4.000000
35.457004 21.326779 4.000000
35.457004 22.449241 4.000000
35.457005 23.571711 4.000000
35.870798 24.330654 4.000000
35.321509 24.807791 4.000000
35.633257 26.913209 4.000000
33.802526 26.412244 4.000000
33.824104 1.124776 4.000000
35.695636 0.583942 4.000000
35.663310 3.437096 4.000000
36.481639 4.491314 4.000000
36.483069 5.612308 4.000000
36.483070 6.734772 4.000000
36.483070 7.857234 4.000000
36.483070 8.979696 4.000000
36.483070 10.102158 4.000000
36.483070 11.224620 4.000000
36.483070 12.347083 4.000000
36.483070 13.469545 4.000000
36.483070 14.592007 4.000000
36.483070 15.714469 4.000000
36.483070 16.836931 4.000000
36.483070 17.959393 4.000000
36.483070 19.081855 4.000000
36.483070 20.204317 4.000000
36.483070 21.326779 4.000000
36.483070 22.449241 4.000000
36.483069 23.571705 4.000000
36.481633 24.692357 4.000000
35.663316 25.746838 4.000000
35.695636 28.600071 4.000000
33.824104 28.059238 4.000000
34.817842 1.033842 4.000000
37.399591 2.808277 4.000000
37.462837 3.416830 4.000000
36.783491 4.489877 4.000000
36.783479 5.612310 4.000000
36.783479 6.734772 4.000000
36.783479 7.857234 4.000000
36.783479 8.979696 4.000000
36.783479 10.102158 4.000000
36.783479 11.224620 4.000000
36.783479 12.347083 4.000000
36.783479 13.469545 4.000000
36.783479 14.592007 4.000000
36.783479 15.714469 4.000000
36.783479 16.836931 4.000000
36.783479 17.959393 4.000000
36.783479 19.081855 4.000000
36.783479 20.204317 4.000000
36.783479 21.326779 4.000000
36.783479 22.449241 4.000000
36.783479 23.571704 4.000000
36.783491 24.694187 4.000000
37.462790 25.767150 4.000000
37.399686 26.375791 4.000000
34.817841 28.150171 4.000000
36.068830 1.124695 4.000000
36.065433 2.252234 4.000000
37.372996 4.004502 4.000000
37.809821 4.489738 4.000000
37.809843 5.612310 4.000000
37.809843 6.734772 4.000000
37.809843 7.857234 4.000000
37.809843 8.979696 4.000000
37.809843 10.102158 4.000000
37.809843 11.224620 4.000000
37.809843 12.347083 4.000000
37.809843 13.469545 4.000000
37.809843 14.592007 4.000000
37.809843 15.714469 4.000000
37.809843 16.836931 4.000000
37.809843 17.959393 4.000000
37.809843 19.081855 4.000000
37.809843 20.204317 4.000000
37.809843 21.326779 4.000000
37.809843 22.449241 4.000000
37.809843 23.571703 4.000000
37.809822 24.694239 4.000000
37.372944 25.179545 4.000000
36.065433 26.931779 4.000000
36.068830 28.059319 4.000000
37.192004 1.124885 4.000000
37.191958 2.245114 4.000000
38.110338 3.361950 4.000000
38.110024 4.489859 4.000000
38.110027 5.612310 4.000000
38.110027 6.734772 4.000000
38.110027 7.857234 4.000000
38.110027 8.979696 4.000000
38.110027 10.102158 4.000000
38.110027 11.224620 4.000000
38.110027 12.347083 4.000000
38.110027 13.469545 4.000000
38.110027 14.592007 4.000000
38.110027 15.714469 4.000000
38.110027 16.836931 4.000000
38.110027 17.959393 4.000000
38.110027 19.081855 4.000000
38.110027 20.204317 4.000000
38.110027 21.326779 4.000000
38.110027 22.449241 4.000000
38.110027 23.571703 4.000000
38.110024 24.694156 4.000000
38.110338 25.822072 4.000000
37.191958 26.938899 4.000000
37.192004 28.059128 4.000000
38.314469 1.124884 4.000000
38.314463 2.244948 4.000000
39.135096 3.371074 4.000000
39.135381 4.489839 4.000000
39.135382 5.612310 4.000000
39.135382 6.734772 4.000000
39.135382 7.857234 4.000000
39.135382 8.979696 4.000000
39.135382 10.102158 4.000000
39.135382 11.224620 4.000000
39.135382 12.347083 4.000000
39.135382 13.469545 4.000000
39.135382 14.592007 4.000000
39.135382 15.714469 4.000000
39.135382 16.836931 4.000000
39.135382 17.959393 4.000000
39.135382 19.081855 4.000000
39.135382 20.204317 4.000000
39.135382 21.326779 4.000000
39.135382 22.449241 4.000000
[...]
POINT_DATA 1250
SCALARS m double
LOOKUP_TABLE default
1.000000
1.000000
1.000000
1.000000
1.000000
1.000000
1.000000
1.000000
1.000000
1.000000
1.000000
1.000000
1.000000
1.000000
1.000000
1.000000
1.000000
1.000000
1.000000
1.000000
1.000000
1.000000
1.000000
1.000000
1.000000
1.000000
1.000000
1.000000
1.000000
1.000000
1.000000
1.000000
1.000000
1.000000
1.000000
1.000000
1.000000
1.000000
1.000000
1.000000
1.000000
1.000000
1.000000
1.000000
1.000000
1.000000
1.000000
1.000000
1.000000
1.000000
1.000000
1.000000
1.000000
1.000000
1.000000
1.000000
1.000000
1.000000
1.000000
1.000000
1.000000
1.000000
1.000000
1.000000
1.000000
1.000000
1.000000
1.000000
1.000000
1.000000
1.000000
1.000000
1.000000
1.000000
1.000000
1.000000
1.000000
1.000000
1.000000
1.000000
1.000000
1.000000
1.000000
1.000000
1.000000
1.000000
1.000000
1.000000
1.000000
1.000000
1.000000
1.000000
1.000000
1.000000
1.000000
1.000000
1.000000
1.000000
1.000000
1.000000
1.000000
1.000000
1.000000
1.000000
1.000000
1.000000
1.000000
1.000000
1.000000
1.000000
1.000000
1.000000
1.000000
1.000000
1.000000
1.000000
1.000000
1.000000
1.000000
1.000000
1.000000
1.000000
1.000000
1.000000
1.000000
1.000000
1.000000
1.000000
1.000000
1.000000
1.000000
1.000000
1.000000
1.000000
1.000000
1.000000
1.000000
1.000000
1.000000
1.000000
1.000000
1.000000
1.000000
1.000000
1.000000
1.000000
1.000000
1.000000
1.000000
1.000000
1.000000
1.000000
1.000000
1.000000
1.000000
1.000000
1.000000
1.000000
1.000000
1.000000
1.000000
1.000000
1.000000
1.000000
1.000000
1.000000
1.000000
1.000000
1.000000
1.000000
1.000000
1.000000
1.000000
1.000000
1.000000
1.000000
1.000000
1.000000
1.000000
1.000000
1.000000
1.000000
1.000000
1.000000
1.000000
1.000000
1.000000
1.000000
1.000000
1.000000
1.000000
1.000000
1.000000
1.000000
1.000000
1.000000
1.000000
1.000000
1.000000
1.000000
1.000000
1.000000
1.000000
1.000000
1.000000
1.000000
1.000000
1.000000
1.000000
1.000000
1.000000
1.000000
1.000000
1.000000
1.000000
1.000000
1.000000
1.000000
1.000000
1.000000
1.000000
1.000000
1.000000
1.000000
1.000000
1.000000
1.000000
1.000000
1.000000
1.000000
1.000000
1.000000
1.000000
1.000000
1.000000
1.000000
1.000000
1.000000
1.000000
1.000000
1.000000
1.000000
1.000000
1.000000
1.000000
1.000000
1.000000
1.000000
1.000000
1.000000
1.000000
1.000000
1.000000
1.000000
1.000000
1.000000
1.000000
1.000000
1.000000
1.000000
1.000000
1.000000
1.000000
1.000000
1.000000
1.000000
1.000000
1.000000
1.000000
1.000000
1.000000
1.000000
1.000000
1.000000
1.000000
1.000000
1.000000
1.000000
1.000000
1.000000
1.000000
1.000000
1.000000
1.000000
1.000000
1.000000
1.000000
1.000000
1.000000
1.000000
1.000000
1.000000
1.000000
1.000000
1.000000
1.000000
1.000000
1.000000
1.000000
1.000000
1.000000
1.000000
1.000000
1.000000
1.000000
1.000000
1.000000
1.000000
1.000000
1.000000
1.000000
1.000000
1.000000
1.000000
1.000000
1.000000
1.000000
1.000000
1.000000
1.000000
1.000000
1.000000
1.000000
1.000000
1.000000
1.000000
1.000000
1.000000
1.000000
1.000000
1.000000
1.000000
1.000000
1.000000
1.000000
1.000000
1.000000
1.000000
1.000000
1.000000
1.000000
1.000000
1.000000
1.000000
1.000000
1.000000
1.000000
1.000000
1.000000
1.000000
1.000000
1.000000
1.000000
1.000000
1.000000
1.000000
1.000000
1.000000
1.000000
1.000000
1.000000
1.000000
1.000000
1.000000
1.000000
1.000000
1.000000
1.000000
1.000000
1.000000
1.000000
1.000000
1.000000
1.000000
1.000000
1.000000
1.000000
1.000000
1.000000
1.000000
1.000000
1.000000
1.000000
1.000000
1.000000
1.000000
1.000000
1.000000
1.000000
1.000000
1.000000
1.000000
1.000000
1.000000
1.000000
1.000000
1.000000
1.000000
1.000000
1.000000
1.000000
1.000000
1.000000
1.000000
1.000000
1.000000
1.000000
1.000000
1.000000
1.000000
1.000000
1.000000
1.000000
1.000000
1.000000
1.000000
1.000000
1.000000
1.000000
1.000000
1.000000
1.000000
1.000000
1.000000
1.000000
1.000000
1.000000
1.000000
1.000000
1.000000
1.000000
1.000000
1.000000
1.000000
1.000000
1.000000
1.000000
1.000000
1.000000
1.000000
1.000000
1.000000
1.000000
1.000000
1.000000
1.000000
1.000000
1.000000
1.000000
1.000000
1.000000
1.000000
1.000000
1.000000
1.000000
1.000000
1.000000
1.000000
1.000000
1.000000
1.000000
1.000000
1.000000
1.000000
1.000000
1.000000
1.000000
1.000000
1.000000
1.000000
1.000000
1.000000
1.000000
1.000000
1.000000
1.000000
1.000000
1.000000
1.000000
1.000000
1.000000
1.000000
1.000000
1.000000
1.000000
1.000000
1.000000
1.000000
1.000000
1.000000
1.000000
1.000000
1.000000
1.000000
1.000000
1.000000
1.000000
1.000000
1.000000
1.000000
1.000000
1.000000
1.000000
1.000000
1.000000
1.000000
1.000000
1.000000
1.000000
1.000000
1.000000
1.000000
1.000000
1.000000
1.000000
1.000000
1.000000
1.000000
1.000000
1.000000
1.000000
1.000000
1.000000
1.000000
1.000000
1.000000
1.000000
1.000000
1.000000
1.000000
1.000000
1.000000
1.000000
1.000000
1.000000
1.000000
1.000000
1.000000
1.000000
1.000000
1.000000
1.000000
1.000000
1.000000
1.000000
1.000000
1.000000
1.000000
1.000000
1.000000
1.000000
1.000000
1.000000
1.000000
1.000000
1.000000
1.000000
1.000000
1.000000
1.000000
1.000000
1.000000
1.000000
1.000000
1.000000
1.000000
1.000000
1.000000
1.000000
1.000000
1.000000
1.000000
1.000000
1.000000
1.000000
1.000000
1.000000
1.000000
1.000000
1.000000
1.000000
1.000000
1.000000
1.000000
1.000000
1.000000
1.000000
1.000000
1.000000
1.000000
1.000000
1.000000
1.000000
1.000000
1.000000
1.000000
1.000000
1.000000
1.000000
1.000000
1.000000
1.000000
1.000000
1.000000
1.000000
1.000000
1.000000
1.000000
1.000000
1.000000
1.000000
1.000000
1.000000
1.000000
1.000000
1.000000
1.000000
1.000000
1.000000
1.000000
1.000000
1.000000
1.000000
1.000000
1.000000
1.000000
1.000000
1.000000
1.000000
1.000000
1.000000
1.000000
1.000000
1.000000
1.000000
1.000000
1.000000
1.000000
1.000000
1.000000
1.000000
1.000000
1.000000
1.000000
1.000000
1.000000
1.000000
1.000000
1.000000
1.000000
1.000000
1.000000
1.000000
1.000000
1.000000
1.000000
1.000000
1.000000
1.000000
1.000000
1.000000
1.000000
1.000000
1.000000
1.000000
1.000000
1.000000
1.000000
1.000000
1.000000
1.000000
1.000000
1.000000
1.000000
1.000000
1.000000
1.000000
1.000000
1.000000
1.000000
1.000000
1.000000
1.000000
1.000000
1.000000
1.000000
1.000000
1.000000
1.000000
1.000000
1.000000
1.000000
1.000000
1.000000
1.000000
1.000000
1.000000
1.000000
1.000000
1.000000
1.000000
1.000000
1.000000
1.000000
1.000000
1.000000
1.000000
1.000000
1.000000
1.000000
1.000000
1.000000
1.000000
1.000000
1.000000
1.000000
1.000000
1.000000
1.000000
1.000000
1.000000
1.000000
1.000000
1.000000
1.000000
1.000000
1.000000
1.000000
1.000000
1.000000
1.000000
1.000000
1.000000
1.000000
1.000000
1.000000
1.000000
1.000000
1.000000
1.000000
1.000000
1.000000
1.000000
1.000000
1.000000
1.000000
1.000000
1.000000
1.000000
1.000000
1.000000
1.000000
1.000000
1.000000
1.000000
1.000000
1.000000
1.000000
1.000000
1.000000
1.000000
1.000000
1.000000
1.000000
1.000000
1.000000
1.000000
1.000000
1.000000
1.000000
1.000000
1.000000
1.000000
1.000000
1.000000
1.000000
1.000000
1.000000
1.000000
1.000000
1.000000
1.000000
1.000000
1.000000
1.000000
1.000000
1.000000
1.000000
1.000000
1.000000
1.000000
1.000000
1.000000
1.000000
1.000000
1.000000
1.000000
1.000000
1.000000
1.000000
1.000000
1.000000
1.000000
1.000000
1.000000
1.000000
1.000000
1.000000
1.000000
1.000000
1.000000
1.000000
1.000000
1.000000
1.000000
1.000000
1.000000
1.000000
1.000000
1.000000
1.000000
1.000000
1.000000
1.000000
1.000000
1.000000
1.000000
1.000000
1.000000
1.000000
1.000000
1.000000
1.000000
1.000000
1.000000
1.000000
1.000000
1.000000
1.000000
1.000000
1.000000
1.000000
1.000000
1.000000
1.000000
1.000000
1.000000
1.000000
1.000000
1.000000
1.000000
1.000000
1.000000
1.000000
1.000000
1.000000
1.000000
1.000000
1.000000
1.000000
1.000000
1.000000
1.000000
1.000000
1.000000
1.000000
1.000000
1.000000
1.000000
1.000000
1.000000
1.000000
1.000000
1.000000
1.000000
1.000000
1.000000
1.000000
1.000000
1.000000
1.000000
1.000000
1.000000
1.000000
1.000000
1.000000
1.000000
1.000000
1.000000
1.000000
1.000000
1.000000
1.000000
1.000000
1.000000
1.000000
1.000000
1.000000
1.000000
1.000000
1.000000
1.000000
1.000000
1.000000
1.000000
1.000000
1.000000
1.000000
1.000000
1.000000
1.000000
1.000000
1.000000
1.000000
1.000000
1.000000
1.000000
1.000000
1.000000
1.000000
1.000000
1.000000
1.000000
1.000000
1.000000
1.000000
1.000000
1.000000
1.000000
1.000000
1.000000
1.000000
1.000000
1.000000
1.000000
1.000000
1.000000
1.000000
1.000000
1.000000
1.000000
1.000000
1.000000
1.000000
1.000000
1.000000
1.000000
1.000000
1.000000
1.000000
1.000000
1.000000
1.000000
1.000000
1.000000
1.000000
1.000000
1.000000
1.000000
1.000000
1.000000
1.000000
1.000000
1.000000
1.000000
1.000000
1.000000
1.000000
1.000000
1.000000
1.000000
1.000000
1.000000
1.000000
1.000000
1.000000
1.000000
1.000000
1.000000
1.000000
1.000000
1.000000
1.000000
1.000000
1.000000
1.000000
1.000000
1.000000
1.000000
1.000000
1.000000
1.000000
1.000000
1.000000
1.000000
1.000000
1.000000
1.000000
1.000000
1.000000
1.000000
1.000000
1.000000
1.000000
1.000000
1.000000
1.000000
1.000000
1.000000
1.000000
1.000000
1.000000
1.000000
1.000000
1.000000
1.000000
1.000000
1.000000
1.000000
1.000000
1.000000
1.000000
1.000000
1.000000
1.000000
1.000000
1.000000
1.000000
1.000000
1.000000
1.000000
1.000000
1.000000
1.000000
1.000000
1.000000
1.000000
1.000000
1.000000
1.000000
1.000000
1.000000
1.000000
1.000000
1.000000
1.000000
1.000000
1.000000
1.000000
1.000000
1.000000
1.000000
1.000000
1.000000
1.000000
1.000000
1.000000
1.000000
1.000000
1.000000
1.000000
1.000000
1.000000
1.000000
1.000000
1.000000
1.000000
1.000000
1.000000
1.000000
1.000000
1.000000
1.000000
1.000000
1.000000
1.000000
1.000000
1.000000
1.000000
1.000000
1.000000
1.000000
1.000000
1.000000
1.000000
1.000000
1.000000
1.000000
1.000000
1.000000
1.000000
1.000000
1.000000
1.000000
1.000000
1.000000
1.000000
1.000000
1.000000
1.000000
1.000000
1.000000
1.000000
1.000000
1.000000
1.000000
1.000000
1.000000
1.000000
1.000000
1.000000
1.000000
1.000000
1.000000
1.000000
1.000000
1.000000
1.000000
1.000000
1.000000
1.000000
1.000000
1.000000
1.000000
1.000000
1.000000
1.000000
1.000000
1.000000
1.000000
1.000000
1.000000
1.000000
1.000000
1.000000
1.000000
1.000000
1.000000
1.000000
1.000000
1.000000
1.000000
1.000000
1.000000
1.000000
1.000000
1.000000
1.000000
1.000000
1.000000
1.000000
1.000000
1.000000
1.000000
1.000000
1.000000
1.000000
1.000000
1.000000
1.000000
1.000000
1.000000
1.000000
1.000000
1.000000
1.000000
1.000000
1.000000
1.000000
1.000000
1.000000
1.000000
1.000000
1.000000
1.000000
1.000000
1.000000
1.000000
1.000000
1.000000
1.000000
1.000000
1.000000
1.000000
1.000000
1.000000
1.000000
1.000000
1.000000
1.000000
1.000000
1.000000
1.000000
1.000000
1.000000
1.000000
1.000000
1.000000
1.000000
1.000000
1.000000
1.000000
1.000000
1.000000
1.000000
1.000000
1.000000
1.000000
1.000000
1.000000
1.000000
1.000000
1.000000
1.000000
1.000000
1.000000
1.000000
1.000000
1.000000
1.000000
1.000000
1.000000
1.000000
1.000000
1.000000
1.000000
1.000000
1.000000
1.000000
1.000000
1.000000
1.000000
1.000000
1.000000
1.000000
1.000000
1.000000
1.000000
1.000000
1.000000
1.000000
1.000000
1.000000
1.000000
1.000000
1.000000
1.000000
1.000000
1.000000
1.000000
VECTORS v double
3.534729 7.482776 0.000000
9.282928 0.087946 0.000000
6.474025 5.247363 0.000000
9.994241 -0.225055 0.000000
11.477818 9.483972 0.000000
-9.997137 -0.004077 0.000000
-9.999479 -0.000036 0.000000
-9.999487 -0.000000 0.000000
-9.999487 0.000000 0.000000
-9.999487 -0.000000 0.000000
-9.999487 -0.000000 0.000000
-9.999487 0.000000 0.000000
-9.999487 -0.000000 0.000000
-9.999487 -0.000000 0.000000
-9.999487 -0.000000 0.000000
-9.999487 0.000000 0.000000
-9.999487 -0.000000 0.000000
-9.999487 0.000000 0.000000
-9.999479 0.000036 0.000000
-9.997137 0.004079 0.000000
11.477106 -9.484799 0.000000
9.994931 0.225819 0.000000
6.486058 -5.235953 0.000000
9.284214 -0.175286 0.000000
3.534274 -7.482927 0.000000
-2.630973 -13.726701 0.000000
8.126747 -2.585934 0.000000
-5.436824 -9.794119 0.000000
-10.116324 1.538682 0.000000
-0.878698 -0.583923 0.000000
9.381383 13.423365 0.000000
9.998685 -0.000138 0.000000
9.998688 -0.000001 0.000000
9.998688 0.000000 0.000000
9.998688 -0.000000 0.000000
9.998688 0.000000 0.000000
9.998688 0.000000 0.000000
9.998688 -0.000000 0.000000
9.998688 -0.000000 0.000000
9.998688 -0.000000 0.000000
9.998688 0.000000 0.000000
9.998688 -0.000000 0.000000
9.998688 0.000001 0.000000
9.998685 0.000138 0.000000
9.382042 -13.422767 0.000000
-0.879157 0.583453 0.000000
-10.125411 -1.459156 0.000000
-5.447672 9.785660 0.000000
8.126743 2.585935 0.000000
-2.630973 13.726701 0.000000
-8.694363 0.070749 0.000000
-8.394482 4.720787 0.000000
7.218973 -6.337839 0.000000
7.519844 7.285447 0.000000
-9.992693 -0.236976 0.000000
-10.075801 0.002528 0.000000
-9.999616 -0.000075 0.000000
-9.999588 -0.000000 0.000000
-9.999588 0.000000 0.000000
-9.999588 -0.000000 0.000000
-9.999588 0.000000 0.000000
-9.999588 0.000000 0.000000
-9.999588 -0.000000 0.000000
-9.999588 -0.000000 0.000000
-9.999588 -0.000000 0.000000
-9.999588 0.000000 0.000000
-9.999588 -0.000000 0.000000
-9.999588 0.000000 0.000000
-9.999616 0.000075 0.000000
-10.075802 -0.002524 0.000000
-9.992740 0.236542 0.000000
7.526694 -7.277627 0.000000
7.218210 6.338817 0.000000
-8.395634 -4.719677 0.000000
-8.694382 -0.070753 0.000000
-0.370338 -3.757122 0.000000
-6.959287 -10.552833 0.000000
8.010036 4.257563 0.000000
-9.249239 -4.354850 0.000000
10.084595 0.183231 0.000000
9.997003 0.000611 0.000000
9.997380 -0.000005 0.000000
9.997387 -0.000000 0.000000
9.997387 0.000000 0.000000
9.997387 -0.000000 0.000000
9.997387 -0.000000 0.000000
9.997387 0.000000 0.000000
9.997387 -0.000000 0.000000
9.997387 -0.000000 0.000000
9.997387 -0.000000 0.000000
9.997387 0.000000 0.000000
9.997387 -0.000000 0.000000
9.997387 0.000000 0.000000
9.997380 0.000005 0.000000
9.997003 -0.000611 0.000000
10.084618 -0.182940 0.000000
-9.253341 4.343561 0.000000
8.132381 -4.386424 0.000000
-6.959290 10.552831 0.000000
-0.370338 3.757123 0.000000
5.397687 5.611998 0.000000
-9.568284 2.252190 0.000000
-8.780986 -5.395441 0.000000
2.601848 11.331754 0.000000
-9.851906 -0.008831 0.000000
-9.998965 0.000010 0.000000
-9.998879 -0.000001 0.000000
-9.998877 0.000000 0.000000
-9.998877 0.000000 0.000000
-9.998877 -0.000000 0.000000
-9.998877 -0.000000 0.000000
-9.998877 0.000000 0.000000
-9.998877 -0.000000 0.000000
-9.998877 -0.000000 0.000000
-9.998877 -0.000000 0.000000
-9.998877 0.000000 0.000000
-9.998877 -0.000000 0.000000
-9.998877 -0.000000 0.000000
-9.998879 0.000001 0.000000
-9.998965 -0.000010 0.000000
-9.852080 0.008861 0.000000
2.487794 -11.363756 0.000000
-8.779223 5.398947 0.000000
-9.568245 -2.252217 0.000000
5.397664 -5.612052 0.000000
-1.127257 -6.319764 0.000000
-1.994726 -10.929392 0.000000
8.704844 4.714281 0.000000
-2.034989 -7.050234 0.000000
9.994115 -0.001376 0.000000
9.995849 -0.000033 0.000000
9.995857 0.000000 0.000000
9.995857 0.000000 0.000000
9.995857 0.000000 0.000000
9.995857 -0.000000 0.000000
9.995857 0.000000 0.000000
9.995857 0.000000 0.000000
9.995857 -0.000000 0.000000
9.995857 -0.000000 0.000000
9.995857 -0.000000 0.000000
9.995857 0.000000 0.000000
9.995857 -0.000000 0.000000
9.995857 -0.000000 0.000000
9.995857 -0.000000 0.000000
9.995849 0.000033 0.000000
9.994126 0.001350 0.000000
-2.039549 7.212311 0.000000
8.701067 -4.713350 0.000000
-1.994290 10.929516 0.000000
-1.127262 6.319767 0.000000
-0.105046 -3.884816 0.000000
3.713575 -5.530824 0.000000
-9.645049 -1.212824 0.000000
-9.994219 -0.211053 0.000000
-9.997671 -0.000427 0.000000
-9.997396 -0.000003 0.000000
-9.997392 0.000000 0.000000
-9.997392 0.000000 0.000000
-9.997392 0.000000 0.000000
-9.997392 -0.000000 0.000000
-9.997392 0.000000 0.000000
-9.997392 0.000000 0.000000
-9.997392 -0.000000 0.000000
-9.997392 -0.000000 0.000000
-9.997392 -0.000000 0.000000
-9.997392 0.000000 0.000000
-9.997392 -0.000000 0.000000
-9.997392 -0.000000 0.000000
-9.997392 -0.000000 0.000000
-9.997396 0.000003 0.000000
-9.997667 0.000416 0.000000
-9.993359 0.255048 0.000000
-9.644811 1.214339 0.000000
3.713060 5.531588 0.000000
-0.103788 3.883788 0.000000
4.837053 -9.997753 0.000000
-7.863681 10.415002 0.000000
1.619707 -3.568626 0.000000
-8.222717 9.268196 0.000000
9.994488 0.000156 0.000000
9.994416 -0.000002 0.000000
9.994416 0.000000 0.000000
9.994416 0.000000 0.000000
9.994416 0.000000 0.000000
9.994416 -0.000000 0.000000
9.994416 0.000000 0.000000
9.994416 0.000000 0.000000
9.994416 -0.000000 0.000000
9.994416 -0.000000 0.000000
9.994416 -0.000000 0.000000
9.994416 0.000000 0.000000
9.994416 -0.000000 0.000000
9.994416 -0.000000 0.000000
9.994416 -0.000000 0.000000
9.994416 0.000002 0.000000
9.994488 -0.000148 0.000000
-8.029480 -9.434597 0.000000
1.615847 3.567152 0.000000
-7.862469 -10.419973 0.000000
4.837053 9.997753 0.000000
-5.825198 6.453289 0.000000
4.957854 -1.505125 0.000000
6.296221 -7.008286 0.000000
4.601295 12.861238 0.000000
-9.995283 -0.000624 0.000000
-9.995456 -0.000003 0.000000
-9.995456 0.000000 0.000000
-9.995456 0.000000 0.000000
-9.995456 0.000000 0.000000
-9.995456 -0.000000 0.000000
-9.995456 0.000000 0.000000
-9.995456 0.000000 0.000000
-9.995456 -0.000000 0.000000
-9.995456 -0.000000 0.000000
-9.995456 -0.000000 0.000000
-9.995456 0.000000 0.000000
-9.995456 -0.000000 0.000000
-9.995456 -0.000000 0.000000
-9.995456 -0.000000 0.000000
-9.995456 0.000003 0.000000
-9.995283 0.000622 0.000000
4.605305 -12.862713 0.000000
6.102484 7.146479 0.000000
4.958009 1.504935 0.000000
-5.825204 -6.453292 0.000000
-10.002755 0.005749 0.000000
-3.935525 -8.264095 0.000000
-10.020767 0.703098 0.000000
9.953147 0.040222 0.000000
9.993230 -0.000222 0.000000
9.993374 -0.000002 0.000000
9.993375 0.000000 0.000000
9.993375 0.000000 0.000000
9.993375 0.000000 0.000000
9.993375 -0.000000 0.000000
9.993375 -0.000000 0.000000
9.993375 0.000000 0.000000
9.993375 -0.000000 0.000000
9.993375 -0.000000 0.000000
9.993375 -0.000000 0.000000
9.993375 0.000000 0.000000
9.993375 -0.000000 0.000000
9.993375 -0.000000 0.000000
9.993375 -0.000000 0.000000
9.993374 0.000002 0.000000
9.993229 0.000225 0.000000
9.952976 -0.048346 0.000000
-10.020633 -0.704014 0.000000
-3.935523 8.264091 0.000000
-10.002756 -0.005749 0.000000
-11.490867 -1.081952 0.000000
0.885635 -8.093713 0.000000
6.410579 1.943207 0.000000
-9.998506 -0.000473 0.000000
-9.993699 -0.000042 0.000000
-9.993661 -0.000001 0.000000
-9.993661 0.000000 0.000000
-9.993661 0.000000 0.000000
-9.993661 0.000000 0.000000
-9.993661 -0.000000 0.000000
-9.993661 -0.000000 0.000000
-9.993661 0.000000 0.000000
-9.993661 -0.000000 0.000000
-9.993661 -0.000000 0.000000
-9.993661 -0.000000 0.000000
-9.993661 0.000000 0.000000
-9.993661 -0.000000 0.000000
-9.993661 -0.000000 0.000000
-9.993661 -0.000000 0.000000
-9.993661 0.000001 0.000000
-9.993699 0.000041 0.000000
-9.998538 0.001540 0.000000
6.409703 -1.944889 0.000000
0.887807 8.095025 0.000000
-11.490870 1.081955 0.000000
-10.020473 -0.004151 0.000000
-10.074474 0.087435 0.000000
-2.104173 12.878676 0.000000
9.990639 -0.005981 0.000000
9.993005 -0.000004 0.000000
9.993009 0.000000 0.000000
9.993009 0.000000 0.000000
9.993009 0.000000 0.000000
9.993009 0.000000 0.000000
9.993009 -0.000000 0.000000
9.993009 -0.000000 0.000000
9.993009 0.000000 0.000000
9.993009 -0.000000 0.000000
9.993009 -0.000000 0.000000
9.993009 -0.000000 0.000000
9.993009 0.000000 0.000000
9.993009 -0.000000 0.000000
9.993009 -0.000000 0.000000
9.993009 -0.000000 0.000000
9.993009 -0.000000 0.000000
9.993005 0.000005 0.000000
9.990640 0.005101 0.000000
-2.105524 -12.877655 0.000000
-10.074484 -0.087437 0.000000
-10.020473 0.004151 0.000000
-10.000043 0.006586 0.000000
-9.999438 0.009797 0.000000
-10.003181 -0.109957 0.000000
-9.993076 0.000088 0.000000
-9.992681 -0.000004 0.000000
-9.992678 0.000000 0.000000
-9.992678 0.000000 0.000000