# vtk DataFile Version 4.0
hesp visualization file
ASCII
DATASET UNSTRUCTURED_GRID
POINTS 1250 double
32.674603 1.598455 4.000000
30.355906 3.343158 4.000000
30.886013 3.353341 4.000000
30.235245 4.490914 4.000000
30.233070 5.612309 4.000000
30.233066 6.734772 4.000000
30.233066 7.857234 4.000000
30.233066 8.979696 4.000000
30.233066 10.102158 4.000000
30.233066 11.224620 4.000000
30.233066 12.347083 4.000000
30.233066 13.469545 4.000000
30.233066 14.592007 4.000000
30.233066 15.714469 4.000000
30.233066 16.836931 4.000000
30.233066 17.959393 4.000000
30.233066 19.081855 4.000000
30.233066 20.204317 4.000000
30.233066 21.326779 4.000000
30.233066 22.449241 4.000000
30.233070 23.571704 4.000000
30.235245 24.693126 4.000000
30.886012 25.830677 4.000000
30.355906 25.840854 4.000000
32.674603 27.585559 4.000000
31.238191 -2.055295 4.000000
31.747634 2.113318 4.000000
31.591175 3.274690 4.000000
31.094350 4.488453 4.000000
31.093754 5.612242 4.000000
31.093733 6.734772 4.000000
31.093733 7.857234 4.000000
31.093733 8.979696 4.000000
31.093733 10.102158 4.000000
31.093733 11.224620 4.000000
31.093733 12.347083 4.000000
31.093733 13.469545 4.000000
31.093733 14.592007 4.000000
31.093733 15.714469 4.000000
31.093733 16.836931 4.000000
31.093733 17.959393 4.000000
31.093733 19.081855 4.000000
31.093733 20.204317 4.000000
31.093733 21.326779 4.000000
31.093733 22.449241 4.000000
31.093754 23.571772 4.000000
31.094351 24.695522 4.000000
31.591214 25.909370 4.000000
31.747633 27.070696 4.000000
31.238191 31.239308 4.000000
31.034505 0.968759 4.000000
31.751406 2.798826 4.000000
31.156672 5.153379 4.000000
31.561609 4.539474 4.000000
31.559657 5.612280 4.000000
31.559672 6.734772 4.000000
31.559672 7.857234 4.000000
31.559672 8.979696 4.000000
31.559672 10.102158 4.000000
31.559672 11.224620 4.000000
31.559672 12.347083 4.000000
31.559672 13.469545 4.000000
31.559672 14.592007 4.000000
31.559672 15.714469 4.000000
31.559672 16.836931 4.000000
31.559672 17.959393 4.000000
31.559672 19.081855 4.000000
31.559672 20.204317 4.000000
31.559672 21.326779 4.000000
31.559672 22.449241 4.000000
31.559657 23.571733 4.000000
31.561606 24.644570 4.000000
31.156671 24.030646 4.000000
31.751394 26.385200 4.000000
31.034504 28.215254 4.000000
31.781376 -0.422145 4.000000
32.181994 0.611868 4.000000
32.191955 3.529374 4.000000
32.443001 4.462904 4.000000
32.420684 5.612311 4.000000
32.420687 6.734772 4.000000
32.420687 7.857234 4.000000
32.420687 8.979696 4.000000
32.420687 10.102158 4.000000
32.420687 11.224620 4.000000
32.420687 12.347083 4.000000
32.420687 13.469545 4.000000
32.420687 14.592007 4.000000
32.420687 15.714469 4.000000
32.420687 16.836931 4.000000
32.420687 17.959393 4.000000
32.420687 19.081855 4.000000
32.420687 20.204317 4.000000
32.420687 21.326779 4.000000
32.420687 22.449241 4.000000
32.420684 23.571703 4.000000
32.443017 24.721067 4.000000
32.191919 25.654541 4.000000
32.181994 28.572145 4.000000
31.781376 29.606158 4.000000
33.834871 2.580710 4.000000
31.109945 2.683957 4.000000
32.934228 3.161436 4.000000
32.886114 4.489647 4.000000
32.886127 5.612309 4.000000
32.886127 6.734772 4.000000
32.886127 7.857234 4.000000
32.886127 8.979696 4.000000
32.886127 10.102158 4.000000
32.886127 11.224620 4.000000
32.886127 12.347083 4.000000
32.886127 13.469545 4.000000
32.886127 14.592007 4.000000
32.886127 15.714469 4.000000
32.886127 16.836931 4.000000
32.886127 17.959393 4.000000
32.886127 19.081855 4.000000
32.886127 20.204317 4.000000
32.886127 21.326779 4.000000
32.886127 22.449241 4.000000
32.886127 23.571704 4.000000
32.886114 24.694405 4.000000
32.934296 26.022713 4.000000
31.109946 26.500055 4.000000
33.834871 26.603303 4.000000
31.261825 0.837206 4.000000
33.462379 1.669140 4.000000
33.694435 3.534789 4.000000
33.747681 4.490014 4.000000
33.747695 5.612311 4.000000
33.747696 6.734772 4.000000
33.747696 7.857234 4.000000
33.747696 8.979696 4.000000
33.747696 10.102158 4.000000
33.747696 11.224620 4.000000
33.747696 12.347083 4.000000
33.747696 13.469545 4.000000
33.747696 14.592007 4.000000
33.747696 15.714469 4.000000
33.747696 16.836931 4.000000
33.747696 17.959393 4.000000
33.747696 19.081855 4.000000
33.747696 20.204317 4.000000
33.747696 21.326779 4.000000
33.747696 22.449241 4.000000
33.747695 23.571703 4.000000
33.747681 24.693967 4.000000
33.694364 25.649113 4.000000
33.462378 27.514871 4.000000
31.261825 28.346807 4.000000
32.583452 2.136739 4.000000
35.444322 3.143265 4.000000
34.215495 3.314153 4.000000
34.212519 4.489801 4.000000
34.212519 5.612310 4.000000
34.212519 6.734772 4.000000
34.212519 7.857234 4.000000
34.212519 8.979696 4.000000
34.212519 10.102158 4.000000
34.212519 11.224620 4.000000
34.212519 12.347083 4.000000
34.212519 13.469545 4.000000
34.212519 14.592007 4.000000
34.212519 15.714469 4.000000
34.212519 16.836931 4.000000
34.212519 17.959393 4.000000
34.212519 19.081855 4.000000
34.212519 20.204317 4.000000
34.212519 21.326779 4.000000
34.212519 22.449241 4.000000
34.212519 23.571703 4.000000
34.212519 24.694224 4.000000
34.215500 25.869907 4.000000
35.444321 26.040750 4.000000
32.583452 27.047275 4.000000
36.003908 -0.715604 4.000000
34.521743 2.901254 4.000000
35.072613 3.401479 4.000000
35.074627 4.489874 4.000000
35.074626 5.612310 4.000000
35.074626 6.734772 4.000000
35.074626 7.857234 4.000000
35.074626 8.979696 4.000000
35.074626 10.102158 4.000000
35.074626 11.224620 4.000000
35.074626 12.347083 4.000000
35.074626 13.469545 4.000000
35.074626 14.592007 4.000000
35.074626 15.714469 4.000000
35.074626 16.836931 4.000000
35.074626 17.959393 4.000000
35.074626 19.081855 4.000000
35.074626 20.204317 4.000000
35.074626 21.326779 4.000000
35.074626 22.449241 4.000000
35.074626 23.571703 4.000000
35.074627 24.694130 4.000000
35.072608 25.782499 4.000000
34.521740 26.282763 4.000000
36.003908 29.899618 4.000000
34.387033 2.138477 4.000000
35.145749 2.432431 4.000000
35.541316 3.365706 4.000000
35.538933 4.489847 4.000000
35.538933 5.612310 4.000000
35.538933 6.734772 4.000000
35.538933 7.857234 4.000000
35.538933 8.979696 4.000000
35.538933 10.102158 4.000000
35.538933 11.224620 4.000000
35.538933 12.347083 4.000000
35.538933 13.469545 4.000000
35.538933 14.592007 4.000000
35.538933 15.714469 4.000000
35.538933 16.836931 4.000000
35.538933 17.959393 4.000000
35.538933 19.081855 4.000000
35.538933 20.204317 4.000000
35.538933 21.326779 4.000000
35.538933 22.449241 4.000000
35.538933 23.571703 4.000000
35.538933 24.694168 4.000000
35.541317 25.818313 4.000000
35.145754 26.751580 4.000000
34.387033 27.045536 4.000000
34.824335 1.124200 4.000000
36.110100 1.427581 4.000000
36.401020 3.371536 4.000000
36.401348 4.489847 4.000000
36.401349 5.612310 4.000000
36.401349 6.734772 4.000000
36.401349 7.857234 4.000000
36.401349 8.979696 4.000000
36.401349 10.102158 4.000000
36.401349 11.224620 4.000000
36.401349 12.347083 4.000000
36.401349 13.469545 4.000000
36.401349 14.592007 4.000000
36.401349 15.714469 4.000000
36.401349 16.836931 4.000000
36.401349 17.959393 4.000000
36.401349 19.081855 4.000000
36.401349 20.204317 4.000000
36.401349 21.326779 4.000000
36.401349 22.449241 4.000000
36.401349 23.571703 4.000000
36.401348 24.694165 4.000000
36.401020 25.812472 4.000000
36.110100 27.756433 4.000000
34.824335 28.059813 4.000000
35.947329 1.125722 4.000000
37.123310 2.814190 4.000000
36.865405 3.366984 4.000000
36.865409 4.489848 4.000000
36.865409 5.612310 4.000000
36.865409 6.734772 4.000000
36.865409 7.857234 4.000000
36.865409 8.979696 4.000000
36.865409 10.102158 4.000000
36.865409 11.224620 4.000000
36.865409 12.347083 4.000000
36.865409 13.469545 4.000000
36.865409 14.592007 4.000000
36.865409 15.714469 4.000000
36.865409 16.836931 4.000000
36.865409 17.959393 4.000000
36.865409 19.081855 4.000000
36.865409 20.204317 4.000000
36.865409 21.326779 4.000000
36.865409 22.449241 4.000000
36.865409 23.571703 4.000000
36.865409 24.694165 4.000000
36.865405 25.817030 4.000000
37.123310 26.369823 4.000000
35.947329 28.058291 4.000000
37.069538 1.124276 4.000000
37.068687 2.245904 4.000000
37.727115 3.367546 4.000000
37.727139 4.489848 4.000000
37.727140 5.612310 4.000000
37.727140 6.734772 4.000000
37.727140 7.857234 4.000000
37.727140 8.979696 4.000000
37.727140 10.102158 4.000000
37.727140 11.224620 4.000000
37.727140 12.347083 4.000000
37.727140 13.469545 4.000000
37.727140 14.592007 4.000000
37.727140 15.714469 4.000000
37.727140 16.836931 4.000000
37.727140 17.959393 4.000000
37.727140 19.081855 4.000000
37.727140 20.204317 4.000000
37.727140 21.326779 4.000000
37.727140 22.449241 4.000000
37.727140 23.571703 4.000000
37.727139 24.694165 4.000000
37.727115 25.816467 4.000000
37.068687 26.938109 4.000000
37.069538 28.059737 4.000000
38.192006 1.124272 4.000000
38.192005 2.244934 4.000000
38.191946 3.367386 4.000000
38.191946 4.489848 4.000000
38.191946 5.612310 4.000000
38.191946 6.734772 4.000000
38.191946 7.857234 4.000000
38.191946 8.979696 4.000000
38.191946 10.102158 4.000000
38.191946 11.224620 4.000000
38.191946 12.347083 4.000000
38.191946 13.469545 4.000000
38.191946 14.592007 4.000000
38.191946 15.714469 4.000000
38.191946 16.836931 4.000000
38.191946 17.959393 4.000000
38.191946 19.081855 4.000000
38.191946 20.204317 4.000000
38.191946 21.326779 4.000000
38.191946 22.449241 4.000000
38.191946 23.571703 4.000000
38.191946 24.694165 4.000000
38.191946 25.816627 4.000000
38.192005 26.939079 4.000000
38.192006 28.059741 4.000000
39.314469 1.124272 4.000000
39.314469 2.244933 4.000000
39.314469 3.367386 4.000000
39.314469 4.489848 4.000000
39.314469 5.612310 4.000000
39.314469 6.734772 4.000000
39.314469 7.857234 4.000000
39.314469 8.979696 4.000000
39.314469 10.102158 4.000000
39.314469 11.224620 4.000000
39.314469 12.347083 4.000000
39.314469 13.469545 4.000000
39.314469 14.592007 4.000000
39.314469 15.714469 4.000000
39.314469 16.836931 4.000000
39.314469 17.959393 4.000000
39.314469 19.081855 4.000000
39.314469 20.204317 4.000000
39.314469 21.326779 4.000000
39.314469 22.449241 4.000000
[...]
POINT_DATA 1250
SCALARS m double
LOOKUP_TABLE default
1.000000
1.000000
1.000000
1.000000
1.000000
1.000000
1.000000
1.000000
1.000000
1.000000
1.000000
1.000000
1.000000
1.000000
1.000000
1.000000
1.000000
1.000000
1.000000
1.000000
1.000000
1.000000
1.000000
1.000000
1.000000
1.000000
1.000000
1.000000
1.000000
1.000000
1.000000
1.000000
1.000000
1.000000
1.000000
1.000000
1.000000
1.000000
1.000000
1.000000
1.000000
1.000000
1.000000
1.000000
1.000000
1.000000
1.000000
1.000000
1.000000
1.000000
1.000000
1.000000
1.000000
1.000000
1.000000
1.000000
1.000000
1.000000
1.000000
1.000000
1.000000
1.000000
1.000000
1.000000
1.000000
1.000000
1.000000
1.000000
1.000000
1.000000
1.000000
1.000000
1.000000
1.000000
1.000000
1.000000
1.000000
1.000000
1.000000
1.000000
1.000000
1.000000
1.000000
1.000000
1.000000
1.000000
1.000000
1.000000
1.000000
1.000000
1.000000
1.000000
1.000000
1.000000
1.000000
1.000000
1.000000
1.000000
1.000000
1.000000
1.000000
1.000000
1.000000
1.000000
1.000000
1.000000
1.000000
1.000000
1.000000
1.000000
1.000000
1.000000
1.000000
1.000000
1.000000
1.000000
1.000000
1.000000
1.000000
1.000000
1.000000
1.000000
1.000000
1.000000
1.000000
1.000000
1.000000
1.000000
1.000000
1.000000
1.000000
1.000000
1.000000
1.000000
1.000000
1.000000
1.000000
1.000000
1.000000
1.000000
1.000000
1.000000
1.000000
1.000000
1.000000
1.000000
1.000000
1.000000
1.000000
1.000000
1.000000
1.000000
1.000000
1.000000
1.000000
1.000000
1.000000
1.000000
1.000000
1.000000
1.000000
1.000000
1.000000
1.000000
1.000000
1.000000
1.000000
1.000000
1.000000
1.000000
1.000000
1.000000
1.000000
1.000000
1.000000
1.000000
1.000000
1.000000
1.000000
1.000000
1.000000
1.000000
1.000000
1.000000
1.000000
1.000000
1.000000
1.000000
1.000000
1.000000
1.000000
1.000000
1.000000
1.000000
1.000000
1.000000
1.000000
1.000000
1.000000
1.000000
1.000000
1.000000
1.000000
1.000000
1.000000
1.000000
1.000000
1.000000
1.000000
1.000000
1.000000
1.000000
1.000000
1.000000
1.000000
1.000000
1.000000
1.000000
1.000000
1.000000
1.000000
1.000000
1.000000
1.000000
1.000000
1.000000
1.000000
1.000000
1.000000
1.000000
1.000000
1.000000
1.000000
1.000000
1.000000
1.000000
1.000000
1.000000
1.000000
1.000000
1.000000
1.000000
1.000000
1.000000
1.000000
1.000000
1.000000
1.000000
1.000000
1.000000
1.000000
1.000000
1.000000
1.000000
1.000000
1.000000
1.000000
1.000000
1.000000
1.000000
1.000000
1.000000
1.000000
1.000000
1.000000
1.000000
1.000000
1.000000
1.000000
1.000000
1.000000
1.000000
1.000000
1.000000
1.000000
1.000000
1.000000
1.000000
1.000000
1.000000
1.000000
1.000000
1.000000
1.000000
1.000000
1.000000
1.000000
1.000000
1.000000
1.000000
1.000000
1.000000
1.000000
1.000000
1.000000
1.000000
1.000000
1.000000
1.000000
1.000000
1.000000
1.000000
1.000000
1.000000
1.000000
1.000000
1.000000
1.000000
1.000000
1.000000
1.000000
1.000000
1.000000
1.000000
1.000000
1.000000
1.000000
1.000000
1.000000
1.000000
1.000000
1.000000
1.000000
1.000000
1.000000
1.000000
1.000000
1.000000
1.000000
1.000000
1.000000
1.000000
1.000000
1.000000
1.000000
1.000000
1.000000
1.000000
1.000000
1.000000
1.000000
1.000000
1.000000
1.000000
1.000000
1.000000
1.000000
1.000000
1.000000
1.000000
1.000000
1.000000
1.000000
1.000000
1.000000
1.000000
1.000000
1.000000
1.000000
1.000000
1.000000
1.000000
1.000000
1.000000
1.000000
1.000000
1.000000
1.000000
1.000000
1.000000
1.000000
1.000000
1.000000
1.000000
1.000000
1.000000
1.000000
1.000000
1.000000
1.000000
1.000000
1.000000
1.000000
1.000000
1.000000
1.000000
1.000000
1.000000
1.000000
1.000000
1.000000
1.000000
1.000000
1.000000
1.000000
1.000000
1.000000
1.000000
1.000000
1.000000
1.000000
1.000000
1.000000
1.000000
1.000000
1.000000
1.000000
1.000000
1.000000
1.000000
1.000000
1.000000
1.000000
1.000000
1.000000
1.000000
1.000000
1.000000
1.000000
1.000000
1.000000
1.000000
1.000000
1.000000
1.000000
1.000000
1.000000
1.000000
1.000000
1.000000
1.000000
1.000000
1.000000
1.000000
1.000000
1.000000
1.000000
1.000000
1.000000
1.000000
1.000000
1.000000
1.000000
1.000000
1.000000
1.000000
1.000000
1.000000
1.000000
1.000000
1.000000
1.000000
1.000000
1.000000
1.000000
1.000000
1.000000
1.000000
1.000000
1.000000
1.000000
1.000000
1.000000
1.000000
1.000000
1.000000
1.000000
1.000000
1.000000
1.000000
1.000000
1.000000
1.000000
1.000000
1.000000
1.000000
1.000000
1.000000
1.000000
1.000000
1.000000
1.000000
1.000000
1.000000
1.000000
1.000000
1.000000
1.000000
1.000000
1.000000
1.000000
1.000000
1.000000
1.000000
1.000000
1.000000
1.000000
1.000000
1.000000
1.000000
1.000000
1.000000
1.000000
1.000000
1.000000
1.000000
1.000000
1.000000
1.000000
1.000000
1.000000
1.000000
1.000000
1.000000
1.000000
1.000000
1.000000
1.000000
1.000000
1.000000
1.000000
1.000000
1.000000
1.000000
1.000000
1.000000
1.000000
1.000000
1.000000
1.000000
1.000000
1.000000
1.000000
1.000000
1.000000
1.000000
1.000000
1.000000
1.000000
1.000000
1.000000
1.000000
1.000000
1.000000
1.000000
1.000000
1.000000
1.000000
1.000000
1.000000
1.000000
1.000000
1.000000
1.000000
1.000000
1.000000
1.000000
1.000000
1.000000
1.000000
1.000000
1.000000
1.000000
1.000000
1.000000
1.000000
1.000000
1.000000
1.000000
1.000000
1.000000
1.000000
1.000000
1.000000
1.000000
1.000000
1.000000
1.000000
1.000000
1.000000
1.000000
1.000000
1.000000
1.000000
1.000000
1.000000
1.000000
1.000000
1.000000
1.000000
1.000000
1.000000
1.000000
1.000000
1.000000
1.000000
1.000000
1.000000
1.000000
1.000000
1.000000
1.000000
1.000000
1.000000
1.000000
1.000000
1.000000
1.000000
1.000000
1.000000
1.000000
1.000000
1.000000
1.000000
1.000000
1.000000
1.000000
1.000000
1.000000
1.000000
1.000000
1.000000
1.000000
1.000000
1.000000
1.000000
1.000000
1.000000
1.000000
1.000000
1.000000
1.000000
1.000000
1.000000
1.000000
1.000000
1.000000
1.000000
1.000000
1.000000
1.000000
1.000000
1.000000
1.000000
1.000000
1.000000
1.000000
1.000000
1.000000
1.000000
1.000000
1.000000
1.000000
1.000000
1.000000
1.000000
1.000000
1.000000
1.000000
1.000000
1.000000
1.000000
1.000000
1.000000
1.000000
1.000000
1.000000
1.000000
1.000000
1.000000
1.000000
1.000000
1.000000
1.000000
1.000000
1.000000
1.000000
1.000000
1.000000
1.000000
1.000000
1.000000
1.000000
1.000000
1.000000
1.000000
1.000000
1.000000
1.000000
1.000000
1.000000
1.000000
1.000000
1.000000
1.000000
1.000000
1.000000
1.000000
1.000000
1.000000
1.000000
1.000000
1.000000
1.000000
1.000000
1.000000
1.000000
1.000000
1.000000
1.000000
1.000000
1.000000
1.000000
1.000000
1.000000
1.000000
1.000000
1.000000
1.000000
1.000000
1.000000
1.000000
1.000000
1.000000
1.000000
1.000000
1.000000
1.000000
1.000000
1.000000
1.000000
1.000000
1.000000
1.000000
1.000000
1.000000
1.000000
1.000000
1.000000
1.000000
1.000000
1.000000
1.000000
1.000000
1.000000
1.000000
1.000000
1.000000
1.000000
1.000000
1.000000
1.000000
1.000000
1.000000
1.000000
1.000000
1.000000
1.000000
1.000000
1.000000
1.000000
1.000000
1.000000
1.000000
1.000000
1.000000
1.000000
1.000000
1.000000
1.000000
1.000000
1.000000
1.000000
1.000000
1.000000
1.000000
1.000000
1.000000
1.000000
1.000000
1.000000
1.000000
1.000000
1.000000
1.000000
1.000000
1.000000
1.000000
1.000000
1.000000
1.000000
1.000000
1.000000
1.000000
1.000000
1.000000
1.000000
1.000000
1.000000
1.000000
1.000000
1.000000
1.000000
1.000000
1.000000
1.000000
1.000000
1.000000
1.000000
1.000000
1.000000
1.000000
1.000000
1.000000
1.000000
1.000000
1.000000
1.000000
1.000000
1.000000
1.000000
1.000000
1.000000
1.000000
1.000000
1.000000
1.000000
1.000000
1.000000
1.000000
1.000000
1.000000
1.000000
1.000000
1.000000
1.000000
1.000000
1.000000
1.000000
1.000000
1.000000
1.000000
1.000000
1.000000
1.000000
1.000000
1.000000
1.000000
1.000000
1.000000
1.000000
1.000000
1.000000
1.000000
1.000000
1.000000
1.000000
1.000000
1.000000
1.000000
1.000000
1.000000
1.000000
1.000000
1.000000
1.000000
1.000000
1.000000
1.000000
1.000000
1.000000
1.000000
1.000000
1.000000
1.000000
1.000000
1.000000
1.000000
1.000000
1.000000
1.000000
1.000000
1.000000
1.000000
1.000000
1.000000
1.000000
1.000000
1.000000
1.000000
1.000000
1.000000
1.000000
1.000000
1.000000
1.000000
1.000000
1.000000
1.000000
1.000000
1.000000
1.000000
1.000000
1.000000
1.000000
1.000000
1.000000
1.000000
1.000000
1.000000
1.000000
1.000000
1.000000
1.000000
1.000000
1.000000
1.000000
1.000000
1.000000
1.000000
1.000000
1.000000
1.000000
1.000000
1.000000
1.000000
1.000000
1.000000
1.000000
1.000000
1.000000
1.000000
1.000000
1.000000
1.000000
1.000000
1.000000
1.000000
1.000000
1.000000
1.000000
1.000000
1.000000
1.000000
1.000000
1.000000
1.000000
1.000000
1.000000
1.000000
1.000000
1.000000
1.000000
1.000000
1.000000
1.000000
1.000000
1.000000
1.000000
1.000000
1.000000
1.000000
1.000000
1.000000
1.000000
1.000000
1.000000
1.000000
1.000000
1.000000
1.000000
1.000000
1.000000
1.000000
1.000000
1.000000
1.000000
1.000000
1.000000
1.000000
1.000000
1.000000
1.000000
1.000000
1.000000
1.000000
1.000000
1.000000
1.000000
1.000000
1.000000
1.000000
1.000000
1.000000
1.000000
1.000000
1.000000
1.000000
1.000000
1.000000
1.000000
1.000000
1.000000
1.000000
1.000000
1.000000
1.000000
1.000000
1.000000
1.000000
1.000000
1.000000
1.000000
1.000000
1.000000
1.000000
1.000000
1.000000
1.000000
1.000000
1.000000
1.000000
1.000000
1.000000
1.000000
1.000000
1.000000
1.000000
1.000000
1.000000
1.000000
1.000000
1.000000
1.000000
1.000000
1.000000
1.000000
1.000000
1.000000
1.000000
1.000000
1.000000
1.000000
1.000000
1.000000
1.000000
1.000000
1.000000
1.000000
1.000000
1.000000
1.000000
1.000000
1.000000
1.000000
1.000000
1.000000
1.000000
1.000000
1.000000
1.000000
1.000000
1.000000
1.000000
1.000000
1.000000
1.000000
1.000000
1.000000
1.000000
1.000000
1.000000
1.000000
1.000000
1.000000
1.000000
1.000000
1.000000
1.000000
1.000000
1.000000
1.000000
1.000000
1.000000
1.000000
1.000000
1.000000
1.000000
1.000000
1.000000
1.000000
1.000000
1.000000
1.000000
1.000000
1.000000
1.000000
1.000000
1.000000
1.000000
1.000000
1.000000
1.000000
1.000000
1.000000
1.000000
1.000000
1.000000
1.000000
1.000000
1.000000
1.000000
1.000000
1.000000
1.000000
1.000000
1.000000
1.000000
1.000000
1.000000
1.000000
1.000000
1.000000
1.000000
1.000000
1.000000
1.000000
1.000000
1.000000
1.000000
1.000000
1.000000
1.000000
1.000000
1.000000
1.000000
1.000000
1.000000
1.000000
1.000000
1.000000
1.000000
1.000000
1.000000
1.000000
1.000000
1.000000
1.000000
1.000000
1.000000
1.000000
1.000000
1.000000
1.000000
1.000000
1.000000
1.000000
1.000000
1.000000
1.000000
1.000000
1.000000
1.000000
1.000000
1.000000
1.000000
1.000000
1.000000
1.000000
1.000000
1.000000
1.000000
1.000000
1.000000
1.000000
1.000000
1.000000
1.000000
1.000000
1.000000
1.000000
1.000000
1.000000
1.000000
1.000000
1.000000
1.000000
1.000000
1.000000
1.000000
1.000000
1.000000
1.000000
1.000000
1.000000
1.000000
1.000000
1.000000
1.000000
1.000000
1.000000
1.000000
1.000000
1.000000
1.000000
1.000000
1.000000
1.000000
1.000000
1.000000
1.000000
1.000000
1.000000
1.000000
1.000000
1.000000
1.000000
1.000000
1.000000
1.000000
1.000000
1.000000
1.000000
1.000000
1.000000
1.000000
1.000000
1.000000
1.000000
1.000000
1.000000
1.000000
1.000000
1.000000
1.000000
1.000000
1.000000
1.000000
1.000000
1.000000
1.000000
1.000000
1.000000
1.000000
1.000000
1.000000
1.000000
1.000000
1.000000
1.000000
VECTORS v double
9.775914 1.645685 0.000000
6.626936 7.412381 0.000000
9.882780 -0.192873 0.000000
-9.963641 0.033112 0.000000
-10.008462 -0.000116 0.000000
-10.008708 -0.000005 0.000000
-10.008710 0.000000 0.000000
-10.008710 0.000000 0.000000
-10.008710 0.000000 0.000000
-10.008710 -0.000000 0.000000
-10.008710 0.000000 0.000000
-10.008710 0.000000 0.000000
-10.008710 -0.000000 0.000000
-10.008710 -0.000000 0.000000
-10.008710 -0.000000 0.000000
-10.008710 0.000000 0.000000
-10.008710 -0.000000 0.000000
-10.008710 -0.000000 0.000000
-10.008710 -0.000000 0.000000
-10.008708 0.000005 0.000000
-10.008462 0.000116 0.000000
-9.963647 -0.032307 0.000000
9.882776 0.192913 0.000000
6.626933 -7.412393 0.000000
9.775914 -1.645685 0.000000
-2.630968 -13.726710 0.000000
8.085305 -2.718274 0.000000
-8.836135 -4.351625 0.000000
10.034736 -0.017430 0.000000
10.012875 -0.014053 0.000000
10.009545 -0.000011 0.000000
10.009544 0.000000 0.000000
10.009544 0.000000 0.000000
10.009544 0.000000 0.000000
10.009544 -0.000000 0.000000
10.009544 -0.000000 0.000000
10.009544 0.000000 0.000000
10.009544 -0.000000 0.000000
10.009544 -0.000000 0.000000
10.009544 -0.000000 0.000000
10.009544 0.000000 0.000000
10.009544 -0.000000 0.000000
10.009544 -0.000000 0.000000
10.009544 -0.000000 0.000000
10.009545 0.000011 0.000000
10.012875 0.014051 0.000000
10.034747 0.016480 0.000000
-8.834697 4.354018 0.000000
8.085302 2.718280 0.000000
-2.630968 13.726710 0.000000
-1.525662 -4.615854 0.000000
0.486550 -3.304160 0.000000
-5.596919 15.970797 0.000000
-9.979579 1.248847 0.000000
-10.010821 -0.003082 0.000000
-10.008628 -0.000009 0.000000
-10.008626 0.000000 0.000000
-10.008626 0.000000 0.000000
-10.008626 0.000000 0.000000
-10.008626 -0.000000 0.000000
-10.008626 -0.000000 0.000000
-10.008626 0.000000 0.000000
-10.008626 -0.000000 0.000000
-10.008626 -0.000000 0.000000
-10.008626 -0.000000 0.000000
-10.008626 0.000000 0.000000
-10.008626 -0.000000 0.000000
-10.008626 -0.000000 0.000000
-10.008626 -0.000000 0.000000
-10.008628 0.000009 0.000000
-10.010821 0.003082 0.000000
-9.979678 -1.247989 0.000000
-5.597056 -15.970568 0.000000
0.486432 3.304277 0.000000
-1.525642 4.615864 0.000000
-0.344201 -3.829997 0.000000
-6.979177 -10.485862 0.000000
8.934967 5.017911 0.000000
10.412210 -0.814047 0.000000
10.010702 0.000011 0.000000
10.010833 -0.000003 0.000000
10.010835 0.000000 0.000000
10.010835 0.000000 0.000000
10.010835 0.000000 0.000000
10.010835 -0.000000 0.000000
10.010835 0.000000 0.000000
10.010835 0.000000 0.000000
10.010835 -0.000000 0.000000
10.010835 -0.000000 0.000000
10.010835 -0.000000 0.000000
10.010835 0.000000 0.000000
10.010835 -0.000000 0.000000
10.010835 -0.000000 0.000000
10.010835 -0.000000 0.000000
10.010833 0.000003 0.000000
10.010702 -0.000011 0.000000
10.412552 0.812968 0.000000
8.933566 -5.020890 0.000000
-6.979180 10.485861 0.000000
-0.344201 3.829997 0.000000
5.418130 5.743861 0.000000
-9.588002 2.229547 0.000000
-8.654729 -5.257453 0.000000
-10.012926 -0.005790 0.000000
-10.009333 -0.000018 0.000000
-10.009329 -0.000000 0.000000
-10.009329 0.000000 0.000000
-10.009329 0.000000 0.000000
-10.009329 0.000000 0.000000
-10.009329 -0.000000 0.000000
-10.009329 0.000000 0.000000
-10.009329 0.000000 0.000000
-10.009329 -0.000000 0.000000
-10.009329 -0.000000 0.000000
-10.009329 -0.000000 0.000000
-10.009329 0.000000 0.000000
-10.009329 -0.000000 0.000000
-10.009329 -0.000000 0.000000
-10.009329 -0.000000 0.000000
-10.009329 0.000000 0.000000
-10.009333 0.000018 0.000000
-10.012930 0.006786 0.000000
-8.652814 5.260922 0.000000
-9.587987 -2.229572 0.000000
5.418133 -5.743866 0.000000
-8.921228 -1.627577 0.000000
-8.228162 -5.104490 0.000000
8.610185 4.770384 0.000000
10.012010 0.004521 0.000000
10.012189 0.000013 0.000000
10.012194 0.000000 0.000000
10.012194 0.000000 0.000000
10.012194 0.000000 0.000000
10.012194 0.000000 0.000000
10.012194 -0.000000 0.000000
10.012194 0.000000 0.000000
10.012194 0.000000 0.000000
10.012194 -0.000000 0.000000
10.012194 -0.000000 0.000000
10.012194 -0.000000 0.000000
10.012194 0.000000 0.000000
10.012194 -0.000000 0.000000
10.012194 -0.000000 0.000000
10.012194 -0.000000 0.000000
10.012194 -0.000000 0.000000
10.012189 -0.000012 0.000000
10.012010 -0.005441 0.000000
8.608229 -4.773551 0.000000
-8.228179 5.104465 0.000000
-8.921249 1.627566 0.000000
-9.031585 4.098440 0.000000
6.129044 1.583517 0.000000
-9.913636 -1.308502 0.000000
-10.010545 -0.001125 0.000000
-10.010539 -0.000001 0.000000
-10.010539 -0.000000 0.000000
-10.010539 -0.000000 0.000000
-10.010539 -0.000000 0.000000
-10.010539 0.000000 0.000000
-10.010539 -0.000000 0.000000
-10.010539 0.000000 0.000000
-10.010539 0.000000 0.000000
-10.010539 -0.000000 0.000000
-10.010539 -0.000000 0.000000
-10.010539 -0.000000 0.000000
-10.010539 0.000000 0.000000
-10.010539 -0.000000 0.000000
-10.010539 -0.000000 0.000000
-10.010539 0.000000 0.000000
-10.010539 0.000000 0.000000
-10.010539 0.000001 0.000000
-10.010545 0.001424 0.000000
-9.913500 1.309665 0.000000
6.128551 -1.582675 0.000000
-9.031584 -4.098428 0.000000
4.837054 -9.997769 0.000000
-7.505908 10.521283 0.000000
9.989846 1.002478 0.000000
10.013271 0.000781 0.000000
10.013254 0.000000 0.000000
10.013254 0.000000 0.000000
10.013254 0.000000 0.000000
10.013254 -0.000000 0.000000
10.013254 0.000000 0.000000
10.013254 -0.000000 0.000000
10.013254 0.000000 0.000000
10.013254 0.000000 0.000000
10.013254 -0.000000 0.000000
10.013254 -0.000000 0.000000
10.013254 -0.000000 0.000000
10.013254 0.000000 0.000000
10.013254 -0.000000 0.000000
10.013254 -0.000000 0.000000
10.013254 0.000000 0.000000
10.013254 -0.000000 0.000000
10.013254 -0.000000 0.000000
10.013271 -0.001044 0.000000
9.989702 -1.003498 0.000000
-7.505988 -10.521199 0.000000
4.837054 9.997769 0.000000
-5.834375 6.215483 0.000000
4.860734 -1.646603 0.000000
-8.144181 3.446495 0.000000
-10.011842 -0.000046 0.000000
-10.011825 -0.000000 0.000000
-10.011825 -0.000000 0.000000
-10.011825 -0.000000 0.000000
-10.011825 -0.000000 0.000000
-10.011825 0.000000 0.000000
-10.011825 -0.000000 0.000000
-10.011825 -0.000000 0.000000
-10.011825 0.000000 0.000000
-10.011825 -0.000000 0.000000
-10.011825 -0.000000 0.000000
-10.011825 -0.000000 0.000000
-10.011825 0.000000 0.000000
-10.011825 -0.000000 0.000000
-10.011825 0.000000 0.000000
-10.011825 0.000000 0.000000
-10.011825 0.000000 0.000000
-10.011825 0.000000 0.000000
-10.011842 0.000090 0.000000
-8.143673 -3.447164 0.000000
4.860826 1.646535 0.000000
-5.834375 -6.215483 0.000000
-10.002508 0.005446 0.000000
-5.481261 -9.483555 0.000000
10.008057 0.124037 0.000000
10.013705 -0.000028 0.000000
10.013720 0.000000 0.000000
10.013720 0.000000 0.000000
10.013720 0.000000 0.000000
10.013720 -0.000000 0.000000
10.013720 0.000000 0.000000
10.013720 -0.000000 0.000000
10.013720 -0.000000 0.000000
10.013720 0.000000 0.000000
10.013720 -0.000000 0.000000
10.013720 -0.000000 0.000000
10.013720 -0.000000 0.000000
10.013720 0.000000 0.000000
10.013720 -0.000000 0.000000
10.013720 -0.000000 0.000000
10.013720 -0.000000 0.000000
10.013720 0.000000 0.000000
10.013720 -0.000000 0.000000
10.013705 -0.000009 0.000000
10.008055 -0.124178 0.000000
-5.481262 9.483554 0.000000
-10.002508 -0.005446 0.000000
-9.964928 0.125940 0.000000
5.222083 7.345428 0.000000
-10.011486 -0.016361 0.000000
-10.012840 0.000001 0.000000
-10.012838 -0.000000 0.000000
-10.012838 0.000000 0.000000
-10.012838 -0.000000 0.000000
-10.012838 -0.000000 0.000000
-10.012838 0.000000 0.000000
-10.012838 -0.000000 0.000000
-10.012838 -0.000000 0.000000
-10.012838 0.000000 0.000000
-10.012838 -0.000000 0.000000
-10.012838 -0.000000 0.000000
-10.012838 -0.000000 0.000000
-10.012838 0.000000 0.000000
-10.012838 -0.000000 0.000000
-10.012838 -0.000000 0.000000
-10.012838 0.000000 0.000000
-10.012838 0.000000 0.000000
-10.012838 0.000000 0.000000
-10.012840 0.000001 0.000000
-10.011486 0.016370 0.000000
5.222085 -7.345427 0.000000
-9.964928 -0.125940 0.000000
-10.000302 0.005828 0.000000
-10.031525 0.055053 0.000000
10.010248 0.004300 0.000000
10.011526 -0.000015 0.000000
10.011528 0.000000 0.000000
10.011528 0.000000 0.000000
10.011528 0.000000 0.000000
10.011528 -0.000000 0.000000
10.011528 0.000000 0.000000
10.011528 -0.000000 0.000000
10.011528 -0.000000 0.000000
10.011528 0.000000 0.000000
10.011528 -0.000000 0.000000
10.011528 -0.000000 0.000000
10.011528 -0.000000 0.000000
10.011528 0.000000 0.000000
10.011528 -0.000000 0.000000
10.011528 -0.000000 0.000000
10.011528 0.000000 0.000000
10.011528 -0.000000 0.000000
10.011528 -0.000000 0.000000
10.011526 0.000013 0.000000
10.010248 -0.004307 0.000000
-10.031525 -0.055053 0.000000
-10.000302 -0.005828 0.000000