# vtk DataFile Version 4.0
hesp visualization file
ASCII
DATASET UNSTRUCTURED_GRID
POINTS 1250 double
31.828736 -4.709051 4.000000
31.063842 -2.834904 4.000000
33.673058 6.363434 4.000000
34.084574 8.226580 4.000000
27.533050 4.809493 4.000000
30.507826 13.528194 4.000000
28.601859 9.137278 4.000000
33.644358 8.350759 4.000000
35.501357 15.219536 4.000000
33.325233 13.224252 4.000000
33.865975 8.976512 4.000000
32.852961 15.519412 4.000000
33.504790 15.084688 4.000000
28.751381 18.290115 4.000000
30.636224 18.379357 4.000000
28.859120 15.355439 4.000000
30.147369 19.857906 4.000000
35.593802 16.950213 4.000000
28.473281 23.960831 4.000000
29.090202 17.662767 4.000000
37.212543 24.719067 4.000000
31.865056 33.686999 4.000000
34.963226 26.518527 4.000000
31.058599 35.143246 4.000000
31.029755 30.402080 4.000000
32.574210 -20.586341 4.000000
31.077296 1.408296 4.000000
36.024149 -9.622259 4.000000
31.981373 0.323176 4.000000
27.079178 10.967454 4.000000
30.909323 2.110440 4.000000
33.598843 7.012000 4.000000
32.003042 11.531978 4.000000
32.862337 11.267946 4.000000
31.022059 13.251463 4.000000
30.731253 13.228019 4.000000
27.645935 13.519771 4.000000
35.439827 15.919253 4.000000
32.738567 16.463296 4.000000
36.453388 13.581508 4.000000
31.144083 14.175206 4.000000
34.042060 19.416362 4.000000
31.949851 16.114126 4.000000
34.337865 21.967711 4.000000
31.497718 24.421104 4.000000
30.675329 26.339573 4.000000
32.844324 20.768009 4.000000
36.026292 38.772793 4.000000
31.350138 30.685532 4.000000
32.574210 49.770355 4.000000
31.818444 -9.106066 4.000000
33.356744 0.771406 4.000000
30.922693 0.139704 4.000000
28.034187 9.143753 4.000000
33.015112 -2.463754 4.000000
30.574296 9.934501 4.000000
29.875736 7.972718 4.000000
29.546478 6.900846 4.000000
31.155367 15.295538 4.000000
34.270801 11.096180 4.000000
31.979346 14.764719 4.000000
26.009448 15.504824 4.000000
37.562507 16.377341 4.000000
37.151597 14.012815 4.000000
32.773681 12.981349 4.000000
32.497331 14.066347 4.000000
29.995390 20.491048 4.000000
30.771160 21.611188 4.000000
28.951177 19.346756 4.000000
35.324299 13.983382 4.000000
29.705804 24.974446 4.000000
28.397698 20.626205 4.000000
31.709300 23.217739 4.000000
31.979041 32.369084 4.000000
31.702570 38.227133 4.000000
32.536349 -7.861421 4.000000
37.280492 -13.710084 4.000000
31.733581 4.300602 4.000000
38.281354 1.652243 4.000000
29.294769 0.949549 4.000000
33.124055 1.948208 4.000000
29.520625 8.910223 4.000000
29.155649 12.285456 4.000000
32.993584 7.449428 4.000000
33.858467 0.071171 4.000000
36.438196 15.102842 4.000000
33.357496 14.076386 4.000000
37.023998 8.488897 4.000000
30.863114 15.782955 4.000000
34.147203 16.508554 4.000000
29.722270 17.337021 4.000000
36.561489 19.568679 4.000000
32.598828 9.898376 4.000000
27.911946 22.924136 4.000000
30.157569 16.200986 4.000000
35.786585 29.611543 4.000000
37.409404 31.933778 4.000000
31.856634 26.061528 4.000000
37.280499 42.894097 4.000000
34.901555 35.585834 4.000000
29.654356 1.498661 4.000000
33.497454 -0.165768 4.000000
30.556482 -12.848545 4.000000
31.644178 1.177005 4.000000
31.970949 5.879945 4.000000
31.204466 11.635409 4.000000
34.430728 6.544608 4.000000
37.170979 12.010923 4.000000
36.099679 6.403608 4.000000
34.900346 8.016955 4.000000
32.087427 15.463182 4.000000
31.858236 7.495624 4.000000
37.640762 19.021528 4.000000
32.504024 15.864913 4.000000
26.535765 18.737701 4.000000
37.675515 11.839498 4.000000
30.770717 21.094477 4.000000
31.083398 21.356780 4.000000
32.758636 22.182840 4.000000
32.305506 21.502150 4.000000
32.230933 23.713140 4.000000
34.231539 24.712760 4.000000
34.602692 39.944589 4.000000
33.140610 29.684283 4.000000
30.797679 32.058435 4.000000
31.049007 -7.475658 4.000000
31.009125 -14.625037 4.000000
36.264221 5.927418 4.000000
27.153785 2.746194 4.000000
32.274852 6.610322 4.000000
31.889464 6.743495 4.000000
28.807165 8.345165 4.000000
33.386947 9.532800 4.000000
30.836286 12.188525 4.000000
33.711568 7.700079 4.000000
29.775060 11.704153 4.000000
33.808269 12.750747 4.000000
32.318444 11.938833 4.000000
35.751069 12.763757 4.000000
31.563895 10.465592 4.000000
33.726742 12.979533 4.000000
34.972680 18.104790 4.000000
32.413255 25.168252 4.000000
29.329324 18.072551 4.000000
27.750443 27.212411 4.000000
30.953151 17.447862 4.000000
29.000450 19.084820 4.000000
44.583143 19.069911 4.000000
30.556545 42.065860 4.000000
29.801601 37.350817 4.000000
30.353989 -3.711808 4.000000
36.809972 -9.649025 4.000000
33.127907 -5.481882 4.000000
33.114200 3.902773 4.000000
28.872222 9.495908 4.000000
34.875096 5.125539 4.000000
33.233372 8.865618 4.000000
37.285687 13.391487 4.000000
28.176871 2.026373 4.000000
31.511885 8.594429 4.000000
29.462902 9.590974 4.000000
37.231775 15.977449 4.000000
32.479102 13.692529 4.000000
26.318646 14.483170 4.000000
34.529245 26.124196 4.000000
33.999985 16.985853 4.000000
32.683102 25.778943 4.000000
33.810091 20.791709 4.000000
30.394786 22.551337 4.000000
31.807713 23.932174 4.000000
33.750357 33.122927 4.000000
34.369311 20.254916 4.000000
30.414886 29.411737 4.000000
30.584161 32.399306 4.000000
32.757501 33.484684 4.000000
42.533930 -14.212571 4.000000
31.209138 -6.525699 4.000000
35.458023 -1.714111 4.000000
30.843746 4.019102 4.000000
31.278702 6.588119 4.000000
34.671665 1.737501 4.000000
36.719456 8.662345 4.000000
35.331139 11.353269 4.000000
30.900600 10.917925 4.000000
33.076381 12.097573 4.000000
31.880890 12.597861 4.000000
32.502176 12.986948 4.000000
32.833019 17.521374 4.000000
35.628671 21.326435 4.000000
34.496028 16.856423 4.000000
35.015230 14.305489 4.000000
36.771716 18.549957 4.000000
34.715582 22.648648 4.000000
35.161286 22.105511 4.000000
28.609283 21.694660 4.000000
32.463992 17.312475 4.000000
33.996157 19.880049 4.000000
35.360704 32.049645 4.000000
31.382487 17.506662 4.000000
42.533930 43.396584 4.000000
29.721458 -0.838715 4.000000
36.174053 -0.069290 4.000000
36.810721 -10.991626 4.000000
38.281824 4.041545 4.000000
34.451235 8.448636 4.000000
35.598504 4.847082 4.000000
30.955291 13.758238 4.000000
34.595389 11.400485 4.000000
36.312169 7.945509 4.000000
33.033797 4.494438 4.000000
35.566705 5.962671 4.000000
38.042037 16.083171 4.000000
40.048442 15.014472 4.000000
35.617117 17.216573 4.000000
30.800158 20.225381 4.000000
35.897668 16.392317 4.000000
34.968293 17.604451 4.000000
37.523491 16.951958 4.000000
30.485787 16.528328 4.000000
31.179787 21.846455 4.000000
35.938597 19.378800 4.000000
32.687558 25.484035 4.000000
37.964237 35.416908 4.000000
25.452800 30.139796 4.000000
32.588547 34.451073 4.000000
32.709911 -0.633898 4.000000
30.777753 -9.734482 4.000000
31.632957 -1.762635 4.000000
35.876716 1.282060 4.000000
34.915157 8.712333 4.000000
32.606654 3.656674 4.000000
39.111414 8.041784 4.000000
38.562008 13.817366 4.000000
34.510453 15.463984 4.000000
37.624862 11.209062 4.000000
31.146796 9.541563 4.000000
37.672045 14.379651 4.000000
32.044972 13.039483 4.000000
36.784660 18.942700 4.000000
35.880869 18.674244 4.000000
38.431839 15.923579 4.000000
36.782439 18.237565 4.000000
30.970629 20.848537 4.000000
33.791915 24.130108 4.000000
34.938794 21.506521 4.000000
35.479620 24.486569 4.000000
29.920818 27.818544 4.000000
31.834192 32.676207 4.000000
30.779331 38.918874 4.000000
32.185261 27.593731 4.000000
32.266366 -3.405629 4.000000
36.366706 -3.524476 4.000000
32.452337 5.212491 4.000000
33.696056 0.538732 4.000000
33.987316 4.710180 4.000000
43.268133 6.639374 4.000000
29.299549 6.885565 4.000000
36.466473 12.799924 4.000000
32.583483 8.816723 4.000000
36.775677 16.813397 4.000000
35.899111 12.572226 4.000000
37.235008 4.438450 4.000000
36.397556 12.063947 4.000000
37.370097 14.631273 4.000000
36.260763 17.726768 4.000000
37.871738 14.593164 4.000000
32.967331 15.841221 4.000000
34.755069 14.991800 4.000000
30.352989 21.988765 4.000000
33.467662 25.080130 4.000000
34.951504 20.393827 4.000000
27.992948 32.409977 4.000000
36.467987 27.031404 4.000000
33.837807 27.511394 4.000000
32.791887 33.165744 4.000000
29.942493 -9.769589 4.000000
32.277833 -8.653685 4.000000
34.061404 12.952706 4.000000
34.963869 4.841513 4.000000
39.072891 11.583145 4.000000
31.616675 8.258063 4.000000
36.587269 8.209709 4.000000
31.226018 9.156486 4.000000
33.349201 11.504980 4.000000
36.819524 12.810904 4.000000
40.360050 11.796073 4.000000
38.910738 11.361897 4.000000
34.308211 22.361388 4.000000
35.075548 18.896921 4.000000
38.997838 19.602284 4.000000
34.977469 19.242177 4.000000
36.997842 19.150541 4.000000
39.893474 23.283596 4.000000
33.429724 20.919426 4.000000
35.536258 22.457425 4.000000
36.200259 29.572304 4.000000
29.910224 29.013238 4.000000
40.305698 19.456344 4.000000
34.183675 37.415888 4.000000
31.010547 37.061907 4.000000
29.614131 -3.538992 4.000000
32.507920 -7.497224 4.000000
37.528630 -0.118973 4.000000
36.909861 5.851447 4.000000
35.346765 4.261898 4.000000
36.122410 7.134355 4.000000
35.234853 4.919310 4.000000
29.865058 5.951231 4.000000
34.329417 12.279240 4.000000
38.801241 12.829812 4.000000
37.961629 8.112175 4.000000
36.757427 11.935079 4.000000
40.783635 19.169311 4.000000
40.466462 15.848223 4.000000
37.022260 23.385366 4.000000
35.273989 18.652821 4.000000
35.287115 19.325931 4.000000
34.552243 21.079280 4.000000
36.207407 21.522650 4.000000
36.340783 25.749400 4.000000
40.281618 21.235787 4.000000
32.642093 21.177463 4.000000
34.166597 39.005960 4.000000
29.048406 34.661177 4.000000
35.188006 37.175687 4.000000
32.863000 -3.299294 4.000000
34.319556 -4.287995 4.000000
30.800528 -6.005985 4.000000
35.107556 -0.554958 4.000000
33.587947 3.805176 4.000000
39.298751 3.019196 4.000000
38.188928 6.506626 4.000000
44.793233 7.838285 4.000000
34.397539 10.567153 4.000000
40.144968 10.441503 4.000000
31.964183 10.739818 4.000000
38.901670 16.552215 4.000000
34.616641 13.429185 4.000000
39.197853 17.180028 4.000000
41.541485 13.588809 4.000000
33.760054 21.954443 4.000000
36.280679 17.049967 4.000000
32.661734 19.703399 4.000000
[...]
POINT_DATA 1250
SCALARS m double
LOOKUP_TABLE default
1.000000
1.000000
1.000000
1.000000
1.000000
1.000000
1.000000
1.000000
1.000000
1.000000
1.000000
1.000000
1.000000
1.000000
1.000000
1.000000
1.000000
1.000000
1.000000
1.000000
1.000000
1.000000
1.000000
1.000000
1.000000
1.000000
1.000000
1.000000
1.000000
1.000000
1.000000
1.000000
1.000000
1.000000
1.000000
1.000000
1.000000
1.000000
1.000000
1.000000
1.000000
1.000000
1.000000
1.000000
1.000000
1.000000
1.000000
1.000000
1.000000
1.000000
1.000000
1.000000
1.000000
1.000000
1.000000
1.000000
1.000000
1.000000
1.000000
1.000000
1.000000
1.000000
1.000000
1.000000
1.000000
1.000000
1.000000
1.000000
1.000000
1.000000
1.000000
1.000000
1.000000
1.000000
1.000000
1.000000
1.000000
1.000000
1.000000
1.000000
1.000000
1.000000
1.000000
1.000000
1.000000
1.000000
1.000000
1.000000
1.000000
1.000000
1.000000
1.000000
1.000000
1.000000
1.000000
1.000000
1.000000
1.000000
1.000000
1.000000
1.000000
1.000000
1.000000
1.000000
1.000000
1.000000
1.000000
1.000000
1.000000
1.000000
1.000000
1.000000
1.000000
1.000000
1.000000
1.000000
1.000000
1.000000
1.000000
1.000000
1.000000
1.000000
1.000000
1.000000
1.000000
1.000000
1.000000
1.000000
1.000000
1.000000
1.000000
1.000000
1.000000
1.000000
1.000000
1.000000
1.000000
1.000000
1.000000
1.000000
1.000000
1.000000
1.000000
1.000000
1.000000
1.000000
1.000000
1.000000
1.000000
1.000000
1.000000
1.000000
1.000000
1.000000
1.000000
1.000000
1.000000
1.000000
1.000000
1.000000
1.000000
1.000000
1.000000
1.000000
1.000000
1.000000
1.000000
1.000000
1.000000
1.000000
1.000000
1.000000
1.000000
1.000000
1.000000
1.000000
1.000000
1.000000
1.000000
1.000000
1.000000
1.000000
1.000000
1.000000
1.000000
1.000000
1.000000
1.000000
1.000000
1.000000
1.000000
1.000000
1.000000
1.000000
1.000000
1.000000
1.000000
1.000000
1.000000
1.000000
1.000000
1.000000
1.000000
1.000000
1.000000
1.000000
1.000000
1.000000
1.000000
1.000000
1.000000
1.000000
1.000000
1.000000
1.000000
1.000000
1.000000
1.000000
1.000000
1.000000
1.000000
1.000000
1.000000
1.000000
1.000000
1.000000
1.000000
1.000000
1.000000
1.000000
1.000000
1.000000
1.000000
1.000000
1.000000
1.000000
1.000000
1.000000
1.000000
1.000000
1.000000
1.000000
1.000000
1.000000
1.000000
1.000000
1.000000
1.000000
1.000000
1.000000
1.000000
1.000000
1.000000
1.000000
1.000000
1.000000
1.000000
1.000000
1.000000
1.000000
1.000000
1.000000
1.000000
1.000000
1.000000
1.000000
1.000000
1.000000
1.000000
1.000000
1.000000
1.000000
1.000000
1.000000
1.000000
1.000000
1.000000
1.000000
1.000000
1.000000
1.000000
1.000000
1.000000
1.000000
1.000000
1.000000
1.000000
1.000000
1.000000
1.000000
1.000000
1.000000
1.000000
1.000000
1.000000
1.000000
1.000000
1.000000
1.000000
1.000000
1.000000
1.000000
1.000000
1.000000
1.000000
1.000000
1.000000
1.000000
1.000000
1.000000
1.000000
1.000000
1.000000
1.000000
1.000000
1.000000
1.000000
1.000000
1.000000
1.000000
1.000000
1.000000
1.000000
1.000000
1.000000
1.000000
1.000000
1.000000
1.000000
1.000000
1.000000
1.000000
1.000000
1.000000
1.000000
1.000000
1.000000
1.000000
1.000000
1.000000
1.000000
1.000000
1.000000
1.000000
1.000000
1.000000
1.000000
1.000000
1.000000
1.000000
1.000000
1.000000
1.000000
1.000000
1.000000
1.000000
1.000000
1.000000
1.000000
1.000000
1.000000
1.000000
1.000000
1.000000
1.000000
1.000000
1.000000
1.000000
1.000000
1.000000
1.000000
1.000000
1.000000
1.000000
1.000000
1.000000
1.000000
1.000000
1.000000
1.000000
1.000000
1.000000
1.000000
1.000000
1.000000
1.000000
1.000000
1.000000
1.000000
1.000000
1.000000
1.000000
1.000000
1.000000
1.000000
1.000000
1.000000
1.000000
1.000000
1.000000
1.000000
1.000000
1.000000
1.000000
1.000000
1.000000
1.000000
1.000000
1.000000
1.000000
1.000000
1.000000
1.000000
1.000000
1.000000
1.000000
1.000000
1.000000
1.000000
1.000000
1.000000
1.000000
1.000000
1.000000
1.000000
1.000000
1.000000
1.000000
1.000000
1.000000
1.000000
1.000000
1.000000
1.000000
1.000000
1.000000
1.000000
1.000000
1.000000
1.000000
1.000000
1.000000
1.000000
1.000000
1.000000
1.000000
1.000000
1.000000
1.000000
1.000000
1.000000
1.000000
1.000000
1.000000
1.000000
1.000000
1.000000
1.000000
1.000000
1.000000
1.000000
1.000000
1.000000
1.000000
1.000000
1.000000
1.000000
1.000000
1.000000
1.000000
1.000000
1.000000
1.000000
1.000000
1.000000
1.000000
1.000000
1.000000
1.000000
1.000000
1.000000
1.000000
1.000000
1.000000
1.000000
1.000000
1.000000
1.000000
1.000000
1.000000
1.000000
1.000000
1.000000
1.000000
1.000000
1.000000
1.000000
1.000000
1.000000
1.000000
1.000000
1.000000
1.000000
1.000000
1.000000
1.000000
1.000000
1.000000
1.000000
1.000000
1.000000
1.000000
1.000000
1.000000
1.000000
1.000000
1.000000
1.000000
1.000000
1.000000
1.000000
1.000000
1.000000
1.000000
1.000000
1.000000
1.000000
1.000000
1.000000
1.000000
1.000000
1.000000
1.000000
1.000000
1.000000
1.000000
1.000000
1.000000
1.000000
1.000000
1.000000
1.000000
1.000000
1.000000
1.000000
1.000000
1.000000
1.000000
1.000000
1.000000
1.000000
1.000000
1.000000
1.000000
1.000000
1.000000
1.000000
1.000000
1.000000
1.000000
1.000000
1.000000
1.000000
1.000000
1.000000
1.000000
1.000000
1.000000
1.000000
1.000000
1.000000
1.000000
1.000000
1.000000
1.000000
1.000000
1.000000
1.000000
1.000000
1.000000
1.000000
1.000000
1.000000
1.000000
1.000000
1.000000
1.000000
1.000000
1.000000
1.000000
1.000000
1.000000
1.000000
1.000000
1.000000
1.000000
1.000000
1.000000
1.000000
1.000000
1.000000
1.000000
1.000000
1.000000
1.000000
1.000000
1.000000
1.000000
1.000000
1.000000
1.000000
1.000000
1.000000
1.000000
1.000000
1.000000
1.000000
1.000000
1.000000
1.000000
1.000000
1.000000
1.000000
1.000000
1.000000
1.000000
1.000000
1.000000
1.000000
1.000000
1.000000
1.000000
1.000000
1.000000
1.000000
1.000000
1.000000
1.000000
1.000000
1.000000
1.000000
1.000000
1.000000
1.000000
1.000000
1.000000
1.000000
1.000000
1.000000
1.000000
1.000000
1.000000
1.000000
1.000000
1.000000
1.000000
1.000000
1.000000
1.000000
1.000000
1.000000
1.000000
1.000000
1.000000
1.000000
1.000000
1.000000
1.000000
1.000000
1.000000
1.000000
1.000000
1.000000
1.000000
1.000000
1.000000
1.000000
1.000000
1.000000
1.000000
1.000000
1.000000
1.000000
1.000000
1.000000
1.000000
1.000000
1.000000
1.000000
1.000000
1.000000
1.000000
1.000000
1.000000
1.000000
1.000000
1.000000
1.000000
1.000000
1.000000
1.000000
1.000000
1.000000
1.000000
1.000000
1.000000
1.000000
1.000000
1.000000
1.000000
1.000000
1.000000
1.000000
1.000000
1.000000
1.000000
1.000000
1.000000
1.000000
1.000000
1.000000
1.000000
1.000000
1.000000
1.000000
1.000000
1.000000
1.000000
1.000000
1.000000
1.000000
1.000000
1.000000
1.000000
1.000000
1.000000
1.000000
1.000000
1.000000
1.000000
1.000000
1.000000
1.000000
1.000000
1.000000
1.000000
1.000000
1.000000
1.000000
1.000000
1.000000
1.000000
1.000000
1.000000
1.000000
1.000000
1.000000
1.000000
1.000000
1.000000
1.000000
1.000000
1.000000
1.000000
1.000000
1.000000
1.000000
1.000000
1.000000
1.000000
1.000000
1.000000
1.000000
1.000000
1.000000
1.000000
1.000000
1.000000
1.000000
1.000000
1.000000
1.000000
1.000000
1.000000
1.000000
1.000000
1.000000
1.000000
1.000000
1.000000
1.000000
1.000000
1.000000
1.000000
1.000000
1.000000
1.000000
1.000000
1.000000
1.000000
1.000000
1.000000
1.000000
1.000000
1.000000
1.000000
1.000000
1.000000
1.000000
1.000000
1.000000
1.000000
1.000000
1.000000
1.000000
1.000000
1.000000
1.000000
1.000000
1.000000
1.000000
1.000000
1.000000
1.000000
1.000000
1.000000
1.000000
1.000000
1.000000
1.000000
1.000000
1.000000
1.000000
1.000000
1.000000
1.000000
1.000000
1.000000
1.000000
1.000000
1.000000
1.000000
1.000000
1.000000
1.000000
1.000000
1.000000
1.000000
1.000000
1.000000
1.000000
1.000000
1.000000
1.000000
1.000000
1.000000
1.000000
1.000000
1.000000
1.000000
1.000000
1.000000
1.000000
1.000000
1.000000
1.000000
1.000000
1.000000
1.000000
1.000000
1.000000
1.000000
1.000000
1.000000
1.000000
1.000000
1.000000
1.000000
1.000000
1.000000
1.000000
1.000000
1.000000
1.000000
1.000000
1.000000
1.000000
1.000000
1.000000
1.000000
1.000000
1.000000
1.000000
1.000000
1.000000
1.000000
1.000000
1.000000
1.000000
1.000000
1.000000
1.000000
1.000000
1.000000
1.000000
1.000000
1.000000
1.000000
1.000000
1.000000
1.000000
1.000000
1.000000
1.000000
1.000000
1.000000
1.000000
1.000000
1.000000
1.000000
1.000000
1.000000
1.000000
1.000000
1.000000
1.000000
1.000000
1.000000
1.000000
1.000000
1.000000
1.000000
1.000000
1.000000
1.000000
1.000000
1.000000
1.000000
1.000000
1.000000
1.000000
1.000000
1.000000
1.000000
1.000000
1.000000
1.000000
1.000000
1.000000
1.000000
1.000000
1.000000
1.000000
1.000000
1.000000
1.000000
1.000000
1.000000
1.000000
1.000000
1.000000
1.000000
1.000000
1.000000
1.000000
1.000000
1.000000
1.000000
1.000000
1.000000
1.000000
1.000000
1.000000
1.000000
1.000000
1.000000
1.000000
1.000000
1.000000
1.000000
1.000000
1.000000
1.000000
1.000000
1.000000
1.000000
1.000000
1.000000
1.000000
1.000000
1.000000
1.000000
1.000000
1.000000
1.000000
1.000000
1.000000
1.000000
1.000000
1.000000
1.000000
1.000000
1.000000
1.000000
1.000000
1.000000
1.000000
1.000000
1.000000
1.000000
1.000000
1.000000
1.000000
1.000000
1.000000
1.000000
1.000000
1.000000
1.000000
1.000000
1.000000
1.000000
1.000000
1.000000
1.000000
1.000000
1.000000
1.000000
1.000000
1.000000
1.000000
1.000000
1.000000
1.000000
1.000000
1.000000
1.000000
1.000000
1.000000
1.000000
1.000000
1.000000
1.000000
1.000000
1.000000
1.000000
1.000000
1.000000
1.000000
1.000000
1.000000
1.000000
1.000000
1.000000
1.000000
1.000000
1.000000
1.000000
1.000000
1.000000
1.000000
1.000000
1.000000
1.000000
1.000000
1.000000
1.000000
1.000000
1.000000
1.000000
1.000000
1.000000
1.000000
1.000000
1.000000
1.000000
1.000000
1.000000
1.000000
1.000000
1.000000
1.000000
1.000000
1.000000
1.000000
1.000000
1.000000
1.000000
1.000000
1.000000
1.000000
1.000000
1.000000
1.000000
1.000000
1.000000
1.000000
1.000000
1.000000
1.000000
1.000000
1.000000
1.000000
1.000000
1.000000
1.000000
1.000000
1.000000
1.000000
1.000000
1.000000
1.000000
1.000000
1.000000
1.000000
1.000000
1.000000
1.000000
1.000000
1.000000
1.000000
1.000000
1.000000
1.000000
1.000000
1.000000
1.000000
1.000000
1.000000
1.000000
1.000000
1.000000
1.000000
1.000000
1.000000
1.000000
1.000000
1.000000
1.000000
1.000000
1.000000
1.000000
1.000000
1.000000
1.000000
1.000000
1.000000
1.000000
1.000000
1.000000
1.000000
1.000000
1.000000
1.000000
1.000000
1.000000
1.000000
1.000000
1.000000
1.000000
1.000000
1.000000
1.000000
1.000000
1.000000
1.000000
1.000000
1.000000
1.000000
1.000000
1.000000
1.000000
1.000000
1.000000
1.000000
1.000000
1.000000
1.000000
1.000000
1.000000
1.000000
1.000000
1.000000
1.000000
1.000000
1.000000
1.000000
1.000000
1.000000
1.000000
1.000000
1.000000
1.000000
1.000000
1.000000
1.000000
1.000000
1.000000
1.000000
1.000000
1.000000
1.000000
1.000000
1.000000
1.000000
1.000000
1.000000
1.000000
1.000000
1.000000
1.000000
1.000000
1.000000
1.000000
1.000000
1.000000
1.000000
1.000000
1.000000
1.000000
1.000000
1.000000
1.000000
1.000000
1.000000
1.000000
1.000000
1.000000
1.000000
1.000000
1.000000
1.000000
1.000000
1.000000
1.000000
1.000000
1.000000
1.000000
1.000000
1.000000
1.000000
1.000000
1.000000
1.000000
1.000000
1.000000
1.000000
1.000000
1.000000
1.000000
VECTORS v double
-8.537258 -13.362676 0.000000
-1.900410 -7.590609 0.000000
0.140194 -1.091165 0.000000
0.084934 -3.166975 0.000000
-5.703017 0.725580 0.000000
-0.846696 4.761614 0.000000
-13.624474 1.547130 0.000000
-7.144931 -14.446131 0.000000
3.163403 3.376729 0.000000
-4.024861 2.888546 0.000000
1.307792 0.578598 0.000000
11.416624 -3.077778 0.000000
6.301286 -4.895414 0.000000
-7.413681 11.146898 0.000000
-2.262935 2.311181 0.000000
6.706448 -6.289525 0.000000
1.867705 3.372861 0.000000
3.018585 9.197018 0.000000
6.775952 7.370457 0.000000
-3.572797 -4.122850 0.000000
10.224099 6.359051 0.000000
7.145915 12.156076 0.000000
-3.782917 2.237980 0.000000
-2.613002 19.242971 0.000000
1.310209 3.606817 0.000000
2.630965 -13.726701 0.000000
-2.213842 0.201852 0.000000
5.366093 -9.594220 0.000000
0.193728 -7.487923 0.000000
9.657816 10.993321 0.000000
2.081859 -6.757177 0.000000
1.666517 -3.383135 0.000000
4.104429 -6.751648 0.000000
-11.591836 -6.608519 0.000000
14.341832 4.752757 0.000000
-5.102077 4.893918 0.000000
-7.480833 -7.423337 0.000000
-0.328510 -5.323907 0.000000
4.807561 3.308613 0.000000
3.114063 -12.921672 0.000000
3.006964 -3.954914 0.000000
4.844145 9.245581 0.000000
-1.002957 1.566287 0.000000
10.225793 9.543555 0.000000
-5.283428 10.883197 0.000000
-4.134577 6.962969 0.000000
1.411970 2.558536 0.000000
5.246787 9.447781 0.000000
-4.969006 0.627596 0.000000
2.630965 13.726701 0.000000
-0.079158 -9.564166 0.000000
-8.526546 -8.050849 0.000000
-6.961305 -5.692811 0.000000
-3.920385 5.763987 0.000000
-10.414317 -12.946112 0.000000
9.221560 -14.669774 0.000000
-7.723515 6.776811 0.000000
0.579704 5.086058 0.000000
4.400208 5.568510 0.000000
12.011030 9.787648 0.000000
9.983835 4.797455 0.000000
2.234454 0.052305 0.000000
5.140511 3.417073 0.000000
2.379181 5.855451 0.000000
-9.296960 -1.655050 0.000000
1.166667 -9.048548 0.000000
-12.594556 -2.555712 0.000000
8.420958 12.986108 0.000000
2.027631 -10.467899 0.000000
-12.484374 5.175292 0.000000
-5.832545 -3.287988 0.000000
-1.091987 -6.613931 0.000000
-4.210175 6.745714 0.000000
-4.292575 10.366855 0.000000
-0.279705 9.469200 0.000000
3.114423 -17.308880 0.000000
6.835050 -10.617898 0.000000
-0.782750 -1.404706 0.000000
-7.745531 -4.121869 0.000000
-4.448702 -4.079047 0.000000
4.787019 -1.936384 0.000000
7.623720 1.339845 0.000000
13.293304 -0.784320 0.000000
6.025365 2.440966 0.000000
10.827305 -1.118489 0.000000
1.404751 2.000329 0.000000
2.138893 -9.293800 0.000000
-0.337392 -10.796092 0.000000
8.202000 0.592231 0.000000
-2.008921 -8.256053 0.000000
-1.540720 -5.627780 0.000000
1.818915 9.127857 0.000000
8.037705 -10.136577 0.000000
-3.696438 -4.462527 0.000000
-2.728914 -8.503428 0.000000
-3.977729 10.782495 0.000000
3.980774 7.301330 0.000000
4.867209 -8.196665 0.000000
6.835055 10.617898 0.000000
8.753638 6.234741 0.000000
-2.983791 -0.596851 0.000000
-6.429399 -14.253544 0.000000
5.183278 -11.656669 0.000000
0.456979 -15.209667 0.000000
6.126550 -2.254967 0.000000
-1.759366 -4.835311 0.000000
2.113637 -6.396762 0.000000
-0.725856 4.027105 0.000000
-0.388754 -7.219907 0.000000
-11.874104 -8.406461 0.000000
-7.791714 -3.330555 0.000000
5.537888 -3.792753 0.000000
7.972989 -1.432306 0.000000
-0.834941 -1.915038 0.000000
5.428042 3.373467 0.000000
0.158306 -5.506214 0.000000
8.358567 4.935007 0.000000
-1.667360 17.276797 0.000000
-1.041391 -8.187800 0.000000
0.678909 0.215054 0.000000
5.708729 -2.095562 0.000000
-3.209862 8.751317 0.000000
-1.015118 18.016079 0.000000
-0.556894 7.232430 0.000000
-3.733904 19.580097 0.000000
4.706029 -4.567588 0.000000
-0.238980 -17.691403 0.000000
-11.978126 -0.408421 0.000000
-12.473453 -7.017131 0.000000
9.778610 -3.246470 0.000000
-2.098053 -0.727731 0.000000
3.246392 3.546204 0.000000
1.720686 -19.287903 0.000000
-2.859950 5.560935 0.000000
4.223080 -1.651583 0.000000
-2.611021 5.444748 0.000000
1.032378 -2.977753 0.000000
-0.063033 -7.925036 0.000000
7.963432 -11.049296 0.000000
-1.432449 -3.201722 0.000000
-4.952631 -6.032865 0.000000
-6.572721 -6.003541 0.000000
-8.731967 2.428699 0.000000
2.974903 8.393194 0.000000
-2.846731 7.003094 0.000000
6.293023 -10.227029 0.000000
-1.525484 0.335898 0.000000
10.565060 -8.989903 0.000000
-1.995781 10.927773 0.000000
-3.777828 9.271634 0.000000
-2.746431 -6.596190 0.000000
2.756029 -12.815863 0.000000
3.173449 -10.673027 0.000000
3.979893 1.814670 0.000000
6.617275 5.310943 0.000000
10.482283 5.121537 0.000000
-1.998966 4.160216 0.000000
-3.989650 -1.169903 0.000000
-1.455064 -18.208932 0.000000
1.049912 -0.830320 0.000000
-3.423050 8.723876 0.000000
6.809967 -1.350947 0.000000
-8.499174 -0.568597 0.000000
-18.874592 -9.010921 0.000000
-0.689410 7.978184 0.000000
-4.103727 8.386808 0.000000
1.054533 9.826136 0.000000
0.597215 -5.927483 0.000000
6.325413 8.392635 0.000000
0.685462 1.511919 0.000000
2.724931 15.423258 0.000000
-8.270443 3.105391 0.000000
-2.447343 4.197264 0.000000
3.304148 3.037093 0.000000
2.594332 6.817008 0.000000
4.837053 -9.997753 0.000000
-5.362872 -8.962545 0.000000
-5.191547 -6.136784 0.000000
-3.160168 -6.684417 0.000000
-1.774106 -9.885990 0.000000
7.122423 -7.990147 0.000000
5.500401 -2.556341 0.000000
-8.588082 4.356441 0.000000
1.173391 -5.074894 0.000000
-5.744435 -5.608333 0.000000
-6.501057 -4.629262 0.000000
-9.942614 0.572074 0.000000
-6.366521 -4.889295 0.000000
-4.387288 5.446286 0.000000
1.440393 0.015764 0.000000
-0.543753 -7.935347 0.000000
0.745008 -2.906495 0.000000
2.907493 5.775606 0.000000
1.829970 11.601474 0.000000
-4.101097 1.172325 0.000000
0.848350 -11.468451 0.000000
6.752010 -1.995863 0.000000
-1.109859 5.721930 0.000000
-3.244377 0.923290 0.000000
4.837053 9.997753 0.000000
-9.877835 4.496286 0.000000
11.922386 -4.860752 0.000000
3.580986 -20.253959 0.000000
-1.557362 -2.719730 0.000000
11.223339 -0.601653 0.000000
0.375494 -3.262543 0.000000
12.964517 -4.536794 0.000000
-6.179279 -0.771858 0.000000
-8.712478 0.583321 0.000000
-9.536905 -7.475323 0.000000
-0.026952 2.019498 0.000000
1.308832 0.656155 0.000000
2.757177 -2.219459 0.000000
5.046700 2.859503 0.000000
-2.696996 -0.919264 0.000000
7.928956 0.064407 0.000000
2.895381 0.872938 0.000000
6.737771 4.353747 0.000000
-2.111407 14.807165 0.000000
-0.548918 -0.000179 0.000000
3.953725 -2.443689 0.000000
-6.689288 1.986376 0.000000
0.927553 7.844665 0.000000
1.315247 7.181388 0.000000
-7.928549 8.715657 0.000000
-0.553348 -11.401033 0.000000
-3.937790 -8.246172 0.000000
-2.012385 -3.663973 0.000000
4.973677 -6.667754 0.000000
-10.737578 -3.331726 0.000000
-7.368768 9.022446 0.000000
4.503112 4.216380 0.000000
0.556664 6.424363 0.000000
7.226399 4.498970 0.000000
0.499601 -5.571929 0.000000
-7.800047 3.520520 0.000000
6.501994 -1.163382 0.000000
2.025084 19.366813 0.000000
-5.705023 6.631979 0.000000
4.183073 8.778437 0.000000
1.463808 8.315349 0.000000
-12.457983 8.925411 0.000000
2.238896 5.495582 0.000000
7.585716 0.242209 0.000000
-14.200550 0.356122 0.000000
3.935493 -7.719166 0.000000
-3.640460 11.091839 0.000000
-2.239956 7.816404 0.000000
-3.931256 8.247867 0.000000
-0.853662 -2.113292 0.000000
2.010570 0.304783 0.000000
5.490409 -5.648094 0.000000
-10.650857 2.192030 0.000000
4.590735 -6.307678 0.000000
-2.916413 -4.036749 0.000000
10.415669 -5.897568 0.000000
6.900969 -8.452075 0.000000
5.611232 5.015342 0.000000
-6.739585 -0.798451 0.000000
-15.608774 7.837646 0.000000
-1.271263 -14.268326 0.000000
-7.899230 0.120373 0.000000
-7.527510 -16.689954 0.000000
3.553542 2.029934 0.000000
-6.375299 7.706157 0.000000
-1.592080 4.747430 0.000000
7.923312 -3.067005 0.000000
2.418522 2.862304 0.000000
0.399375 6.100329 0.000000
-8.082528 18.263539 0.000000
-0.363675 -5.792644 0.000000
-5.824591 9.403482 0.000000
-1.173446 -3.576091 0.000000
3.232481 10.126124 0.000000
7.679147 10.325633 0.000000
-4.026030 -15.921030 0.000000
-3.025546 -14.329550 0.000000
-6.516526 3.226325 0.000000
13.869342 -5.053912 0.000000
10.692438 -5.563891 0.000000
-10.031172 -7.781121 0.000000
0.605218 -3.672997 0.000000
-6.387249 -4.534888 0.000000
-9.056166 -0.223160 0.000000
-0.162735 -3.967448 0.000000
17.512281 -5.474893 0.000000
13.052875 -5.530998 0.000000
-12.834034 0.714669 0.000000
0.000004 7.502719 0.000000
6.450959 3.403175 0.000000
3.984565 16.513776 0.000000
-4.379105 -4.111918 0.000000
3.399708 6.659044 0.000000
-4.835325 1.057334 0.000000
0.640901 -5.353406 0.000000
-3.384200 5.973310 0.000000
-4.392236 4.290591 0.000000
-2.878234 2.654448 0.000000
2.170298 11.758425 0.000000
2.340512 8.330073 0.000000
-7.096579 -8.454910 0.000000
4.641470 -5.961607 0.000000
-11.698162 -6.103361 0.000000
-5.121486 -4.468844 0.000000
1.151200 1.617911 0.000000
-6.432445 -9.856179 0.000000