# vtk DataFile Version 4.0
hesp visualization file
ASCII
DATASET UNSTRUCTURED_GRID
POINTS 1250 double
33.333178 4.176073 4.000000
30.685591 1.586640 4.000000
34.912740 4.692460 4.000000
33.182879 4.485766 4.000000
32.259159 6.576131 4.000000
30.208548 8.974949 4.000000
31.147734 9.648781 4.000000
30.532692 9.136842 4.000000
30.395969 10.089201 4.000000
30.398211 11.224607 4.000000
30.398216 12.347083 4.000000
30.398216 13.469545 4.000000
30.398216 14.592007 4.000000
30.398216 15.714469 4.000000
30.398216 16.836931 4.000000
30.398211 17.959407 4.000000
30.396024 19.094761 4.000000
30.400181 19.932602 4.000000
31.376689 19.840406 4.000000
30.243297 20.247842 4.000000
32.382503 24.061167 4.000000
31.129507 25.790853 4.000000
33.482752 24.523526 4.000000
30.752563 27.719003 4.000000
33.307727 25.938855 4.000000
30.155172 -7.683243 4.000000
34.070625 1.841171 4.000000
30.966014 -0.571718 4.000000
30.841543 5.195024 4.000000
30.634994 6.087057 4.000000
30.834740 7.156696 4.000000
30.251478 7.511293 4.000000
31.289806 9.904784 4.000000
31.500371 10.831965 4.000000
30.927852 11.224074 4.000000
30.927625 12.347081 4.000000
30.927625 13.469545 4.000000
30.927625 14.592007 4.000000
30.927625 15.714469 4.000000
30.927625 16.836933 4.000000
30.927822 17.959917 4.000000
31.691231 18.610592 4.000000
30.934917 19.076200 4.000000
31.539841 20.543728 4.000000
30.747774 22.800753 4.000000
30.643764 23.189594 4.000000
31.961115 24.392708 4.000000
30.970010 29.752585 4.000000
34.072500 27.338738 4.000000
30.155172 36.867256 4.000000
31.825455 -0.183844 4.000000
31.865539 4.092909 4.000000
31.772161 4.816714 4.000000
33.242692 5.843684 4.000000
31.827349 5.516561 4.000000
31.167407 9.161779 4.000000
32.034998 10.957365 4.000000
31.911036 7.658320 4.000000
32.458383 10.096744 4.000000
31.723936 11.225192 4.000000
31.723812 12.347084 4.000000
31.723812 13.469545 4.000000
31.723812 14.592007 4.000000
31.723812 15.714469 4.000000
31.723812 16.836929 4.000000
31.723934 17.958703 4.000000
32.458388 19.087153 4.000000
31.915742 21.523138 4.000000
32.043147 18.246276 4.000000
30.583552 21.298476 4.000000
31.093070 23.808539 4.000000
34.118157 23.176828 4.000000
31.967558 23.226303 4.000000
33.086218 25.209691 4.000000
31.826238 29.366625 4.000000
31.595679 -1.946729 4.000000
30.855505 -3.729015 4.000000
31.733970 2.723070 4.000000
33.465178 3.640088 4.000000
32.331683 3.853583 4.000000
30.870388 6.645539 4.000000
33.280421 8.785920 4.000000
31.489592 9.562757 4.000000
33.917337 10.362053 4.000000
32.845243 11.223398 4.000000
32.253938 12.347194 4.000000
32.253852 13.469545 4.000000
32.253852 14.592007 4.000000
32.253853 15.714469 4.000000
32.253929 16.836832 4.000000
32.845281 17.960563 4.000000
33.895399 18.828965 4.000000
31.505268 19.605957 4.000000
33.289996 20.407635 4.000000
30.955482 21.193383 4.000000
33.203843 24.931146 4.000000
33.540238 25.155444 4.000000
31.585653 26.452962 4.000000
30.855507 32.913028 4.000000
31.595679 31.130742 4.000000
34.264637 3.080628 4.000000
31.447433 4.098659 4.000000
30.860815 1.104842 4.000000
34.668007 6.125204 4.000000
31.445332 7.740622 4.000000
31.253241 7.259336 4.000000
32.135717 7.504680 4.000000
32.539117 8.765308 4.000000
31.937123 9.513315 4.000000
33.240451 11.987419 4.000000
33.049725 12.346596 4.000000
33.049471 13.469543 4.000000
33.049470 14.592007 4.000000
33.049471 15.714471 4.000000
33.049680 16.837189 4.000000
33.292251 17.334149 4.000000
31.902482 19.632597 4.000000
32.540309 20.421095 4.000000
32.458707 22.057800 4.000000
31.612448 21.627102 4.000000
31.539553 22.390622 4.000000
35.813790 24.201605 4.000000
30.860211 28.070425 4.000000
31.435540 25.083924 4.000000
33.112134 25.486695 4.000000
30.771585 -1.737998 4.000000
32.432117 -2.609910 4.000000
36.020259 6.141445 4.000000
31.065619 6.803747 4.000000
33.903864 7.217568 4.000000
32.013905 6.742342 4.000000
32.814479 8.223077 4.000000
32.824303 9.125569 4.000000
32.859014 10.104869 4.000000
33.421581 12.242037 4.000000
33.971063 12.819961 4.000000
33.580446 13.469535 4.000000
33.580444 14.592007 4.000000
33.580446 15.714481 4.000000
33.891885 16.367778 4.000000
33.404845 16.810694 4.000000
32.859762 19.079183 4.000000
32.815278 20.065634 4.000000
32.805593 20.939997 4.000000
31.473530 21.926267 4.000000
34.092728 21.217208 4.000000
31.063796 22.043807 4.000000
36.540073 24.381968 4.000000
32.432280 31.793968 4.000000
30.771583 30.922012 4.000000
31.592779 2.146320 4.000000
36.436084 3.229357 4.000000
31.276334 1.534488 4.000000
33.695158 4.922826 4.000000
31.407272 6.967288 4.000000
32.778996 6.826827 4.000000
34.639365 7.552624 4.000000
33.784612 8.987339 4.000000
33.853928 9.877477 4.000000
33.784419 11.224603 4.000000
34.417205 12.341668 4.000000
34.375537 13.469538 4.000000
34.375539 14.592007 4.000000
34.375536 15.714475 4.000000
34.525281 16.875571 4.000000
33.784409 17.959409 4.000000
33.842694 19.275476 4.000000
33.784609 20.196682 4.000000
34.223588 22.080868 4.000000
32.837067 21.931773 4.000000
32.304588 22.348004 4.000000
33.378583 23.373109 4.000000
30.370603 26.695290 4.000000
36.411540 25.963092 4.000000
31.665579 26.876430 4.000000
37.987100 -4.814684 4.000000
35.064810 2.754130 4.000000
35.896699 2.061864 4.000000
33.342330 6.670109 4.000000
35.799718 5.397203 4.000000
33.956326 6.798616 4.000000
35.272735 8.743698 4.000000
35.497386 8.973036 4.000000
34.904413 10.104660 4.000000
34.907309 11.224623 4.000000
34.907269 12.347083 4.000000
34.907279 13.469544 4.000000
34.907280 14.592007 4.000000
34.907279 15.714469 4.000000
34.907212 16.836936 4.000000
34.907309 17.959389 4.000000
34.906945 19.079099 4.000000
35.497651 20.210732 4.000000
35.340135 20.523612 4.000000
33.956945 22.373458 4.000000
35.743461 23.012462 4.000000
33.248148 22.712312 4.000000
35.895226 27.121216 4.000000
34.618710 24.718140 4.000000
37.987100 33.998697 4.000000
32.427208 3.051725 4.000000
32.790508 1.781517 4.000000
37.250242 2.171627 4.000000
36.753585 5.347793 4.000000
34.778242 6.899552 4.000000
35.253750 7.117132 4.000000
35.116862 7.908741 4.000000
35.985407 10.388124 4.000000
35.361336 10.176985 4.000000
35.702224 11.224612 4.000000
35.702230 12.347083 4.000000
35.702232 13.469545 4.000000
35.702232 14.592007 4.000000
35.702231 15.714469 4.000000
35.702229 16.836931 4.000000
35.702224 17.959402 4.000000
35.408135 19.052939 4.000000
35.959153 18.735533 4.000000
35.120505 21.243432 4.000000
35.255292 22.043453 4.000000
34.791362 22.254201 4.000000
36.924001 23.990103 4.000000
37.229076 27.047805 4.000000
32.790588 27.402049 4.000000
33.018941 26.793764 4.000000
32.123176 0.960717 4.000000
34.476304 -1.976063 4.000000
35.607152 2.665420 4.000000
36.101974 4.508883 4.000000
36.074887 8.031019 4.000000
36.286216 6.602991 4.000000
36.820335 7.718985 4.000000
35.995286 9.789539 4.000000
36.233746 10.101737 4.000000
36.234203 11.224617 4.000000
36.234204 12.347083 4.000000
36.234204 13.469545 4.000000
36.234204 14.592007 4.000000
36.234204 15.714469 4.000000
36.234204 16.836931 4.000000
36.234203 17.959396 4.000000
36.233888 19.082224 4.000000
35.954642 19.419084 4.000000
36.804725 21.473588 4.000000
36.611765 22.552520 4.000000
36.089548 21.145273 4.000000
35.942394 24.819677 4.000000
35.609967 26.517197 4.000000
34.476304 31.160074 4.000000
32.113448 28.201219 4.000000
31.242505 0.482922 4.000000
35.183747 1.838420 4.000000
36.395718 4.580799 4.000000
35.107523 3.228988 4.000000
37.797038 5.358838 4.000000
36.787562 7.433365 4.000000
36.488486 8.771638 4.000000
36.415038 9.208798 4.000000
37.029380 10.102316 4.000000
37.029517 11.224620 4.000000
37.029518 12.347083 4.000000
37.029518 13.469545 4.000000
37.029518 14.592007 4.000000
37.029518 15.714469 4.000000
37.029518 16.836931 4.000000
37.029517 17.959393 4.000000
37.029375 19.081694 4.000000
36.397067 19.966160 4.000000
36.526235 20.404507 4.000000
36.927495 21.673600 4.000000
38.086916 24.112816 4.000000
34.935037 25.818989 4.000000
36.667420 24.062101 4.000000
35.177506 27.345247 4.000000
31.249484 28.731833 4.000000
33.208889 0.259455 4.000000
36.147747 0.592725 4.000000
37.073410 7.788346 4.000000
35.933606 3.683268 4.000000
36.962344 6.225587 4.000000
37.823440 6.083480 4.000000
37.654985 7.562386 4.000000
37.561113 8.979623 4.000000
37.561089 10.102160 4.000000
37.561089 11.224620 4.000000
37.561089 12.347083 4.000000
37.561089 13.469545 4.000000
37.561089 14.592007 4.000000
37.561089 15.714469 4.000000
37.561089 16.836931 4.000000
37.561089 17.959393 4.000000
37.561089 19.081853 4.000000
37.561112 20.204394 4.000000
37.661073 21.629495 4.000000
37.691216 23.153591 4.000000
36.418698 23.244204 4.000000
35.875286 25.538772 4.000000
37.063333 21.402932 4.000000
36.150046 28.599736 4.000000
33.208903 28.924577 4.000000
34.092042 1.132797 4.000000
34.807050 1.453263 4.000000
38.559077 2.728187 4.000000
38.996846 5.478072 4.000000
37.367397 5.901772 4.000000
37.793333 6.982411 4.000000
38.223528 8.031571 4.000000
38.357117 8.979734 4.000000
38.357161 10.102157 4.000000
38.357162 11.224620 4.000000
38.357162 12.347083 4.000000
38.357162 13.469545 4.000000
38.357162 14.592007 4.000000
38.357162 15.714469 4.000000
38.357162 16.836931 4.000000
38.357162 17.959393 4.000000
38.357161 19.081856 4.000000
38.357117 20.204277 4.000000
38.216172 21.148576 4.000000
37.793120 22.202661 4.000000
37.341910 23.170520 4.000000
38.943856 23.615755 4.000000
38.550059 26.440007 4.000000
34.811227 27.737419 4.000000
34.092051 28.051210 4.000000
34.997098 0.395852 4.000000
37.805563 1.669155 4.000000
36.535146 2.712039 4.000000
37.044993 4.411284 4.000000
37.930211 5.801348 4.000000
39.089740 6.336890 4.000000
38.887880 7.857316 4.000000
38.887861 8.979704 4.000000
38.887861 10.102158 4.000000
38.887861 11.224620 4.000000
38.887861 12.347083 4.000000
38.887861 13.469545 4.000000
38.887861 14.592007 4.000000
38.887861 15.714469 4.000000
38.887861 16.836931 4.000000
38.887861 17.959393 4.000000
38.887861 19.081855 4.000000
38.887861 20.204310 4.000000
38.887880 21.326706 4.000000
[...]
POINT_DATA 1250
SCALARS m double
LOOKUP_TABLE default
1.000000
1.000000
1.000000
1.000000
1.000000
1.000000
1.000000
1.000000
1.000000
1.000000
1.000000
1.000000
1.000000
1.000000
1.000000
1.000000
1.000000
1.000000
1.000000
1.000000
1.000000
1.000000
1.000000
1.000000
1.000000
1.000000
1.000000
1.000000
1.000000
1.000000
1.000000
1.000000
1.000000
1.000000
1.000000
1.000000
1.000000
1.000000
1.000000
1.000000
1.000000
1.000000
1.000000
1.000000
1.000000
1.000000
1.000000
1.000000
1.000000
1.000000
1.000000
1.000000
1.000000
1.000000
1.000000
1.000000
1.000000
1.000000
1.000000
1.000000
1.000000
1.000000
1.000000
1.000000
1.000000
1.000000
1.000000
1.000000
1.000000
1.000000
1.000000
1.000000
1.000000
1.000000
1.000000
1.000000
1.000000
1.000000
1.000000
1.000000
1.000000
1.000000
1.000000
1.000000
1.000000
1.000000
1.000000
1.000000
1.000000
1.000000
1.000000
1.000000
1.000000
1.000000
1.000000
1.000000
1.000000
1.000000
1.000000
1.000000
1.000000
1.000000
1.000000
1.000000
1.000000
1.000000
1.000000
1.000000
1.000000
1.000000
1.000000
1.000000
1.000000
1.000000
1.000000
1.000000
1.000000
1.000000
1.000000
1.000000
1.000000
1.000000
1.000000
1.000000
1.000000
1.000000
1.000000
1.000000
1.000000
1.000000
1.000000
1.000000
1.000000
1.000000
1.000000
1.000000
1.000000
1.000000
1.000000
1.000000
1.000000
1.000000
1.000000
1.000000
1.000000
1.000000
1.000000
1.000000
1.000000
1.000000
1.000000
1.000000
1.000000
1.000000
1.000000
1.000000
1.000000
1.000000
1.000000
1.000000
1.000000
1.000000
1.000000
1.000000
1.000000
1.000000
1.000000
1.000000
1.000000
1.000000
1.000000
1.000000
1.000000
1.000000
1.000000
1.000000
1.000000
1.000000
1.000000
1.000000
1.000000
1.000000
1.000000
1.000000
1.000000
1.000000
1.000000
1.000000
1.000000
1.000000
1.000000
1.000000
1.000000
1.000000
1.000000
1.000000
1.000000
1.000000
1.000000
1.000000
1.000000
1.000000
1.000000
1.000000
1.000000
1.000000
1.000000
1.000000
1.000000
1.000000
1.000000
1.000000
1.000000
1.000000
1.000000
1.000000
1.000000
1.000000
1.000000
1.000000
1.000000
1.000000
1.000000
1.000000
1.000000
1.000000
1.000000
1.000000
1.000000
1.000000
1.000000
1.000000
1.000000
1.000000
1.000000
1.000000
1.000000
1.000000
1.000000
1.000000
1.000000
1.000000
1.000000
1.000000
1.000000
1.000000
1.000000
1.000000
1.000000
1.000000
1.000000
1.000000
1.000000
1.000000
1.000000
1.000000
1.000000
1.000000
1.000000
1.000000
1.000000
1.000000
1.000000
1.000000
1.000000
1.000000
1.000000
1.000000
1.000000
1.000000
1.000000
1.000000
1.000000
1.000000
1.000000
1.000000
1.000000
1.000000
1.000000
1.000000
1.000000
1.000000
1.000000
1.000000
1.000000
1.000000
1.000000
1.000000
1.000000
1.000000
1.000000
1.000000
1.000000
1.000000
1.000000
1.000000
1.000000
1.000000
1.000000
1.000000
1.000000
1.000000
1.000000
1.000000
1.000000
1.000000
1.000000
1.000000
1.000000
1.000000
1.000000
1.000000
1.000000
1.000000
1.000000
1.000000
1.000000
1.000000
1.000000
1.000000
1.000000
1.000000
1.000000
1.000000
1.000000
1.000000
1.000000
1.000000
1.000000
1.000000
1.000000
1.000000
1.000000
1.000000
1.000000
1.000000
1.000000
1.000000
1.000000
1.000000
1.000000
1.000000
1.000000
1.000000
1.000000
1.000000
1.000000
1.000000
1.000000
1.000000
1.000000
1.000000
1.000000
1.000000
1.000000
1.000000
1.000000
1.000000
1.000000
1.000000
1.000000
1.000000
1.000000
1.000000
1.000000
1.000000
1.000000
1.000000
1.000000
1.000000
1.000000
1.000000
1.000000
1.000000
1.000000
1.000000
1.000000
1.000000
1.000000
1.000000
1.000000
1.000000
1.000000
1.000000
1.000000
1.000000
1.000000
1.000000
1.000000
1.000000
1.000000
1.000000
1.000000
1.000000
1.000000
1.000000
1.000000
1.000000
1.000000
1.000000
1.000000
1.000000
1.000000
1.000000
1.000000
1.000000
1.000000
1.000000
1.000000
1.000000
1.000000
1.000000
1.000000
1.000000
1.000000
1.000000
1.000000
1.000000
1.000000
1.000000
1.000000
1.000000
1.000000
1.000000
1.000000
1.000000
1.000000
1.000000
1.000000
1.000000
1.000000
1.000000
1.000000
1.000000
1.000000
1.000000
1.000000
1.000000
1.000000
1.000000
1.000000
1.000000
1.000000
1.000000
1.000000
1.000000
1.000000
1.000000
1.000000
1.000000
1.000000
1.000000
1.000000
1.000000
1.000000
1.000000
1.000000
1.000000
1.000000
1.000000
1.000000
1.000000
1.000000
1.000000
1.000000
1.000000
1.000000
1.000000
1.000000
1.000000
1.000000
1.000000
1.000000
1.000000
1.000000
1.000000
1.000000
1.000000
1.000000
1.000000
1.000000
1.000000
1.000000
1.000000
1.000000
1.000000
1.000000
1.000000
1.000000
1.000000
1.000000
1.000000
1.000000
1.000000
1.000000
1.000000
1.000000
1.000000
1.000000
1.000000
1.000000
1.000000
1.000000
1.000000
1.000000
1.000000
1.000000
1.000000
1.000000
1.000000
1.000000
1.000000
1.000000
1.000000
1.000000
1.000000
1.000000
1.000000
1.000000
1.000000
1.000000
1.000000
1.000000
1.000000
1.000000
1.000000
1.000000
1.000000
1.000000
1.000000
1.000000
1.000000
1.000000
1.000000
1.000000
1.000000
1.000000
1.000000
1.000000
1.000000
1.000000
1.000000
1.000000
1.000000
1.000000
1.000000
1.000000
1.000000
1.000000
1.000000
1.000000
1.000000
1.000000
1.000000
1.000000
1.000000
1.000000
1.000000
1.000000
1.000000
1.000000
1.000000
1.000000
1.000000
1.000000
1.000000
1.000000
1.000000
1.000000
1.000000
1.000000
1.000000
1.000000
1.000000
1.000000
1.000000
1.000000
1.000000
1.000000
1.000000
1.000000
1.000000
1.000000
1.000000
1.000000
1.000000
1.000000
1.000000
1.000000
1.000000
1.000000
1.000000
1.000000
1.000000
1.000000
1.000000
1.000000
1.000000
1.000000
1.000000
1.000000
1.000000
1.000000
1.000000
1.000000
1.000000
1.000000
1.000000
1.000000
1.000000
1.000000
1.000000
1.000000
1.000000
1.000000
1.000000
1.000000
1.000000
1.000000
1.000000
1.000000
1.000000
1.000000
1.000000
1.000000
1.000000
1.000000
1.000000
1.000000
1.000000
1.000000
1.000000
1.000000
1.000000
1.000000
1.000000
1.000000
1.000000
1.000000
1.000000
1.000000
1.000000
1.000000
1.000000
1.000000
1.000000
1.000000
1.000000
1.000000
1.000000
1.000000
1.000000
1.000000
1.000000
1.000000
1.000000
1.000000
1.000000
1.000000
1.000000
1.000000
1.000000
1.000000
1.000000
1.000000
1.000000
1.000000
1.000000
1.000000
1.000000
1.000000
1.000000
1.000000
1.000000
1.000000
1.000000
1.000000
1.000000
1.000000
1.000000
1.000000
1.000000
1.000000
1.000000
1.000000
1.000000
1.000000
1.000000
1.000000
1.000000
1.000000
1.000000
1.000000
1.000000
1.000000
1.000000
1.000000
1.000000
1.000000
1.000000
1.000000
1.000000
1.000000
1.000000
1.000000
1.000000
1.000000
1.000000
1.000000
1.000000
1.000000
1.000000
1.000000
1.000000
1.000000
1.000000
1.000000
1.000000
1.000000
1.000000
1.000000
1.000000
1.000000
1.000000
1.000000
1.000000
1.000000
1.000000
1.000000
1.000000
1.000000
1.000000
1.000000
1.000000
1.000000
1.000000
1.000000
1.000000
1.000000
1.000000
1.000000
1.000000
1.000000
1.000000
1.000000
1.000000
1.000000
1.000000
1.000000
1.000000
1.000000
1.000000
1.000000
1.000000
1.000000
1.000000
1.000000
1.000000
1.000000
1.000000
1.000000
1.000000
1.000000
1.000000
1.000000
1.000000
1.000000
1.000000
1.000000
1.000000
1.000000
1.000000
1.000000
1.000000
1.000000
1.000000
1.000000
1.000000
1.000000
1.000000
1.000000
1.000000
1.000000
1.000000
1.000000
1.000000
1.000000
1.000000
1.000000
1.000000
1.000000
1.000000
1.000000
1.000000
1.000000
1.000000
1.000000
1.000000
1.000000
1.000000
1.000000
1.000000
1.000000
1.000000
1.000000
1.000000
1.000000
1.000000
1.000000
1.000000
1.000000
1.000000
1.000000
1.000000
1.000000
1.000000
1.000000
1.000000
1.000000
1.000000
1.000000
1.000000
1.000000
1.000000
1.000000
1.000000
1.000000
1.000000
1.000000
1.000000
1.000000
1.000000
1.000000
1.000000
1.000000
1.000000
1.000000
1.000000
1.000000
1.000000
1.000000
1.000000
1.000000
1.000000
1.000000
1.000000
1.000000
1.000000
1.000000
1.000000
1.000000
1.000000
1.000000
1.000000
1.000000
1.000000
1.000000
1.000000
1.000000
1.000000
1.000000
1.000000
1.000000
1.000000
1.000000
1.000000
1.000000
1.000000
1.000000
1.000000
1.000000
1.000000
1.000000
1.000000
1.000000
1.000000
1.000000
1.000000
1.000000
1.000000
1.000000
1.000000
1.000000
1.000000
1.000000
1.000000
1.000000
1.000000
1.000000
1.000000
1.000000
1.000000
1.000000
1.000000
1.000000
1.000000
1.000000
1.000000
1.000000
1.000000
1.000000
1.000000
1.000000
1.000000
1.000000
1.000000
1.000000
1.000000
1.000000
1.000000
1.000000
1.000000
1.000000
1.000000
1.000000
1.000000
1.000000
1.000000
1.000000
1.000000
1.000000
1.000000
1.000000
1.000000
1.000000
1.000000
1.000000
1.000000
1.000000
1.000000
1.000000
1.000000
1.000000
1.000000
1.000000
1.000000
1.000000
1.000000
1.000000
1.000000
1.000000
1.000000
1.000000
1.000000
1.000000
1.000000
1.000000
1.000000
1.000000
1.000000
1.000000
1.000000
1.000000
1.000000
1.000000
1.000000
1.000000
1.000000
1.000000
1.000000
1.000000
1.000000
1.000000
1.000000
1.000000
1.000000
1.000000
1.000000
1.000000
1.000000
1.000000
1.000000
1.000000
1.000000
1.000000
1.000000
1.000000
1.000000
1.000000
1.000000
1.000000
1.000000
1.000000
1.000000
1.000000
1.000000
1.000000
1.000000
1.000000
1.000000
1.000000
1.000000
1.000000
1.000000
1.000000
1.000000
1.000000
1.000000
1.000000
1.000000
1.000000
1.000000
1.000000
1.000000
1.000000
1.000000
1.000000
1.000000
1.000000
1.000000
1.000000
1.000000
1.000000
1.000000
1.000000
1.000000
1.000000
1.000000
1.000000
1.000000
1.000000
1.000000
1.000000
1.000000
1.000000
1.000000
1.000000
1.000000
1.000000
1.000000
1.000000
1.000000
1.000000
1.000000
1.000000
1.000000
1.000000
1.000000
1.000000
1.000000
1.000000
1.000000
1.000000
1.000000
1.000000
1.000000
1.000000
1.000000
1.000000
1.000000
1.000000
1.000000
1.000000
1.000000
1.000000
1.000000
1.000000
1.000000
1.000000
1.000000
1.000000
1.000000
1.000000
1.000000
1.000000
1.000000
1.000000
1.000000
1.000000
1.000000
1.000000
1.000000
1.000000
1.000000
1.000000
1.000000
1.000000
1.000000
1.000000
1.000000
1.000000
1.000000
1.000000
1.000000
1.000000
1.000000
1.000000
1.000000
1.000000
1.000000
1.000000
1.000000
1.000000
1.000000
1.000000
1.000000
1.000000
1.000000
1.000000
1.000000
1.000000
1.000000
1.000000
1.000000
1.000000
1.000000
1.000000
1.000000
1.000000
1.000000
1.000000
1.000000
1.000000
1.000000
1.000000
1.000000
1.000000
1.000000
1.000000
1.000000
1.000000
1.000000
1.000000
1.000000
1.000000
1.000000
1.000000
1.000000
1.000000
1.000000
1.000000
1.000000
1.000000
1.000000
1.000000
1.000000
1.000000
1.000000
1.000000
1.000000
1.000000
1.000000
1.000000
1.000000
1.000000
1.000000
1.000000
1.000000
1.000000
1.000000
1.000000
1.000000
1.000000
1.000000
1.000000
1.000000
1.000000
1.000000
1.000000
1.000000
1.000000
1.000000
1.000000
1.000000
1.000000
1.000000
1.000000
1.000000
1.000000
1.000000
1.000000
1.000000
1.000000
1.000000
1.000000
1.000000
1.000000
1.000000
1.000000
1.000000
1.000000
1.000000
1.000000
1.000000
1.000000
1.000000
1.000000
1.000000
1.000000
1.000000
1.000000
1.000000
1.000000
1.000000
1.000000
1.000000
1.000000
1.000000
1.000000
1.000000
1.000000
1.000000
1.000000
1.000000
1.000000
1.000000
1.000000
1.000000
1.000000
1.000000
1.000000
1.000000
1.000000
1.000000
1.000000
1.000000
1.000000
1.000000
1.000000
1.000000
1.000000
1.000000
1.000000
1.000000
1.000000
1.000000
1.000000
1.000000
1.000000
1.000000
1.000000
1.000000
1.000000
1.000000
1.000000
1.000000
1.000000
1.000000
1.000000
1.000000
1.000000
1.000000
1.000000
1.000000
1.000000
1.000000
1.000000
1.000000
1.000000
1.000000
VECTORS v double
3.886019 -7.197331 0.000000
6.499042 -7.987598 0.000000
13.922279 3.002365 0.000000
2.840769 14.874988 0.000000
5.804053 6.818744 0.000000
-3.100142 4.816008 0.000000
3.218513 12.843732 0.000000
5.494187 5.286085 0.000000
9.987395 -0.173150 0.000000
10.009349 -0.000185 0.000000
10.009361 -0.000001 0.000000
10.009361 0.000000 0.000000
10.009361 0.000000 0.000000
10.009361 -0.000000 0.000000
10.009361 -0.000001 0.000000
10.009314 0.000194 0.000000
9.994479 0.172782 0.000000
2.609463 -8.985722 0.000000
3.213432 2.496662 0.000000
-1.202839 -1.958043 0.000000
6.779934 5.450259 0.000000
-7.303583 7.945915 0.000000
1.708414 -2.613907 0.000000
6.606962 8.826777 0.000000
-4.940678 10.332203 0.000000
-2.741454 -13.726701 0.000000
-9.466425 3.331870 0.000000
5.429094 -9.790412 0.000000
-7.838577 6.647203 0.000000
-7.598846 -6.378737 0.000000
-4.759035 2.108009 0.000000
-9.776890 -2.178946 0.000000
4.093926 0.067562 0.000000
9.541472 18.357388 0.000000
-10.005372 -0.021185 0.000000
-10.011292 -0.000062 0.000000
-10.011307 -0.000000 0.000000
-10.011307 0.000000 0.000000
-10.011307 0.000000 0.000000
-10.011295 0.000059 0.000000
-10.007863 0.018457 0.000000
14.622017 -12.276749 0.000000
-3.480095 -5.351571 0.000000
11.000861 -13.378773 0.000000
-4.114395 10.214799 0.000000
-7.121936 7.154698 0.000000
0.039711 -2.483293 0.000000
5.440058 9.781867 0.000000
-9.434616 -3.415497 0.000000
-2.741454 13.726701 0.000000
0.187125 -9.213579 0.000000
-1.992688 0.934733 0.000000
1.346241 -6.318318 0.000000
-3.898725 9.554657 0.000000
10.034322 -0.320266 0.000000
3.383334 2.367201 0.000000
-1.458287 7.247292 0.000000
3.568343 -9.954713 0.000000
-10.030172 -0.316707 0.000000
10.022309 -0.020178 0.000000
10.007050 0.000062 0.000000
10.007059 -0.000000 0.000000
10.007058 -0.000000 0.000000
10.007059 0.000000 0.000000
10.007048 -0.000073 0.000000
10.023835 0.000863 0.000000
-10.030293 0.310722 0.000000
4.287424 10.055401 0.000000
-1.401724 -7.089561 0.000000
-5.557423 -6.045133 0.000000
-1.568459 2.542429 0.000000
8.150505 -12.650954 0.000000
8.792338 -5.984119 0.000000
4.507344 2.148024 0.000000
0.192803 9.192510 0.000000
-0.500118 -3.681355 0.000000
6.835108 -10.619251 0.000000
-1.447036 9.349910 0.000000
6.047708 -2.047876 0.000000
2.373335 -10.172093 0.000000
0.891199 -10.420817 0.000000
9.428102 8.116672 0.000000
-8.445075 5.244959 0.000000
3.607597 4.094750 0.000000
9.994273 -0.018753 0.000000
-10.009856 0.003861 0.000000
-10.012280 -0.000005 0.000000
-10.012296 0.000000 0.000000
-10.012276 0.000005 0.000000
-10.010273 -0.003446 0.000000
9.995960 0.017366 0.000000
3.418712 -3.910966 0.000000
-4.410347 -9.964846 0.000000
9.776442 -7.701657 0.000000
1.478118 -0.050820 0.000000
15.281833 -5.224084 0.000000
4.402058 7.329186 0.000000
-5.909770 -9.291341 0.000000
6.835113 10.619251 0.000000
-0.500119 3.681356 0.000000
0.359039 -7.086320 0.000000
8.248636 4.309015 0.000000
8.751037 -4.860806 0.000000
8.789053 9.310457 0.000000
-6.032933 7.930085 0.000000
-11.980167 5.521116 0.000000
-0.918881 5.745762 0.000000
-8.065626 -2.191492 0.000000
-6.986963 -4.641304 0.000000
0.740911 9.499697 0.000000
10.052464 -0.049901 0.000000
10.005252 -0.000087 0.000000
10.005195 0.000001 0.000000
10.005279 0.000124 0.000000
10.047780 0.011911 0.000000
1.386858 -7.792135 0.000000
-7.296324 4.343689 0.000000
-7.966996 2.288399 0.000000
4.108858 4.958060 0.000000
-7.926974 -8.238092 0.000000
-5.862236 0.108939 0.000000
10.960787 -2.461536 0.000000
8.723327 4.671061 0.000000
8.243477 -4.172370 0.000000
-5.301348 6.766776 0.000000
-1.119300 -6.328576 0.000000
-1.995626 -10.926706 0.000000
5.690693 9.586134 0.000000
0.261628 8.966682 0.000000
-6.761133 -5.025030 0.000000
-2.784357 -8.729571 0.000000
-7.757437 -3.060645 0.000000
-3.199626 6.222052 0.000000
10.202833 0.258629 0.000000
-10.930048 1.455923 0.000000
4.660465 17.777125 0.000000
-10.011713 -0.001056 0.000000
-10.012092 0.000001 0.000000
-10.011701 0.001414 0.000000
0.989058 -16.296044 0.000000
-10.704239 -5.259381 0.000000
10.208050 -0.252898 0.000000
-3.401450 -6.094738 0.000000
-8.046840 2.410948 0.000000
-13.303705 -4.624271 0.000000
-1.443281 -4.720400 0.000000
-8.566047 -9.697435 0.000000
5.897099 6.606235 0.000000
-1.995187 10.926831 0.000000
-1.119303 6.328582 0.000000
-5.236402 -5.396195 0.000000
1.864014 3.446019 0.000000
-3.731441 -9.000306 0.000000
4.388827 -2.361167 0.000000
-12.401541 7.812296 0.000000
-11.554366 2.325695 0.000000
2.330728 -1.952933 0.000000
-10.010084 0.089628 0.000000
-5.250839 -15.858544 0.000000
-10.009059 -0.000691 0.000000
11.599718 -0.199632 0.000000
10.003973 -0.000817 0.000000
10.004366 0.000000 0.000000
10.004003 0.000676 0.000000
15.166109 1.351822 0.000000
-10.009893 0.000301 0.000000
-5.559165 15.345105 0.000000
-10.010340 -0.089114 0.000000
-4.466123 9.002580 0.000000
-10.330554 -7.212845 0.000000
-4.421557 -3.980911 0.000000
2.540563 -9.873654 0.000000
-8.905203 3.269378 0.000000
1.708995 -3.330843 0.000000
-1.451976 4.624740 0.000000
4.837053 -9.997753 0.000000
2.454718 -15.355887 0.000000
1.721743 -3.448748 0.000000
-3.250234 3.879177 0.000000
-8.709522 1.521388 0.000000
-10.180582 0.501279 0.000000
7.818203 12.262916 0.000000
9.960514 -0.151208 0.000000
-10.071458 0.092553 0.000000
-10.004742 0.000013 0.000000
-10.013984 0.000001 0.000000
-10.010879 -0.000038 0.000000
-10.010838 0.000000 0.000000
-10.010871 0.000037 0.000000
-10.032826 0.002081 0.000000
-10.004745 -0.000060 0.000000
-9.992680 -0.095723 0.000000
9.966285 0.164856 0.000000
8.322445 -10.864726 0.000000
-10.114629 -0.612461 0.000000
-6.942692 -11.162280 0.000000
-4.817807 0.020044 0.000000
1.718403 3.445204 0.000000
4.891672 -5.913095 0.000000
4.837053 9.997753 0.000000
-3.052466 -4.483709 0.000000
-9.857729 -1.596829 0.000000
-1.811401 -9.942181 0.000000
-7.385758 -4.838492 0.000000
-7.778795 6.944010 0.000000
-8.262506 5.042449 0.000000
-9.941066 0.856079 0.000000
13.198627 14.114980 0.000000
-4.520638 3.130387 0.000000
10.004738 -0.000585 0.000000
10.004632 0.000006 0.000000
10.004670 0.000000 0.000000
10.004677 -0.000000 0.000000
10.004669 0.000001 0.000000
10.004600 -0.000006 0.000000
10.004789 0.000737 0.000000
-2.880102 -1.231079 0.000000
11.738222 -16.184257 0.000000
-9.894934 -1.256188 0.000000
-8.132174 -5.363606 0.000000
-7.670780 -7.181492 0.000000
-1.158550 6.937439 0.000000
5.071270 7.764825 0.000000
-9.856643 1.588831 0.000000
0.437298 8.120942 0.000000
1.500929 -1.200513 0.000000
-3.933255 -8.257643 0.000000
2.672591 -3.376204 0.000000
0.574243 -0.117766 0.000000
1.548541 -10.035106 0.000000
-4.763446 6.301327 0.000000
8.696405 -1.620626 0.000000
-1.322881 10.461397 0.000000
-10.082586 -0.014361 0.000000
-10.009096 -0.000307 0.000000
-10.008984 -0.000001 0.000000
-10.008983 -0.000000 0.000000
-10.008983 -0.000000 0.000000
-10.008984 0.000000 0.000000
-10.008984 0.000002 0.000000
-10.009143 0.000388 0.000000
-10.052560 0.010473 0.000000
-1.821219 -10.168876 0.000000
1.998109 -8.039600 0.000000
6.520006 -9.601765 0.000000
1.762464 9.934816 0.000000
-0.138559 1.024124 0.000000
2.708411 3.390885 0.000000
-3.933254 8.257638 0.000000
1.371783 0.816282 0.000000
-11.641122 -4.358845 0.000000
2.772391 5.375344 0.000000
-1.232901 -8.187898 0.000000
-2.315254 -1.721893 0.000000
9.079121 1.194391 0.000000
-5.576778 8.427920 0.000000
-8.037333 0.180165 0.000000
-11.620732 15.737331 0.000000
10.002059 0.005405 0.000000
10.005714 -0.000014 0.000000
10.005748 -0.000001 0.000000
10.005748 0.000000 0.000000
10.005748 -0.000000 0.000000
10.005748 -0.000000 0.000000
10.005748 0.000001 0.000000
10.005712 0.000015 0.000000
10.002045 -0.005519 0.000000
-12.716974 -15.477408 0.000000
-6.662627 -0.566641 0.000000
2.722849 0.677384 0.000000
11.256289 2.008305 0.000000
-7.689289 6.509656 0.000000
-3.188239 0.320992 0.000000
2.533596 -5.452668 0.000000
-11.539844 4.797082 0.000000
-7.980473 -7.190693 0.000000
-9.767002 -5.480666 0.000000
0.338322 2.024999 0.000000
-10.806666 0.027421 0.000000
12.737208 -1.420860 0.000000
5.680438 -8.180721 0.000000
-6.959812 -7.961061 0.000000
-10.001300 -0.001894 0.000000
-10.007132 0.000072 0.000000
-10.007142 -0.000002 0.000000
-10.007139 -0.000000 0.000000
-10.007139 0.000000 0.000000
-10.007139 -0.000000 0.000000
-10.007139 -0.000000 0.000000
-10.007139 0.000000 0.000000
-10.007142 0.000002 0.000000
-10.007130 -0.000072 0.000000
-10.001329 0.002001 0.000000
-6.755742 8.177072 0.000000
3.924405 8.989637 0.000000
-0.997633 7.476581 0.000000
-11.252452 0.296410 0.000000
0.194795 -2.101137 0.000000
-9.743021 5.558745 0.000000
-7.980347 7.190851 0.000000
-10.000523 0.092108 0.000000
-6.151734 -8.690722 0.000000
3.601200 1.329764 0.000000
3.135709 1.704788 0.000000