# vtk DataFile Version 4.0
hesp visualization file
ASCII
DATASET UNSTRUCTURED_GRID
POINTS 1250 double
31.893704 1.467482 4.000000
30.390173 2.754216 4.000000
30.117018 3.364631 4.000000
30.116958 4.489844 4.000000
30.116957 5.612310 4.000000
30.116957 6.734772 4.000000
30.116957 7.857234 4.000000
30.116957 8.979696 4.000000
30.116957 10.102158 4.000000
30.116957 11.224620 4.000000
30.116957 12.347083 4.000000
30.116957 13.469545 4.000000
30.116957 14.592007 4.000000
30.116957 15.714469 4.000000
30.116957 16.836931 4.000000
30.116957 17.959393 4.000000
30.116957 19.081855 4.000000
30.116957 20.204317 4.000000
30.116957 21.326779 4.000000
30.116957 22.449241 4.000000
30.116957 23.571703 4.000000
30.116958 24.694169 4.000000
30.117018 25.819384 4.000000
30.390173 26.429797 4.000000
31.893704 27.716531 4.000000
31.448671 -0.957151 4.000000
31.102087 2.339096 4.000000
31.212772 3.370671 4.000000
31.209885 4.489848 4.000000
31.209882 5.612310 4.000000
31.209882 6.734772 4.000000
31.209882 7.857234 4.000000
31.209882 8.979696 4.000000
31.209882 10.102158 4.000000
31.209882 11.224620 4.000000
31.209882 12.347083 4.000000
31.209882 13.469545 4.000000
31.209882 14.592007 4.000000
31.209882 15.714469 4.000000
31.209882 16.836931 4.000000
31.209882 17.959393 4.000000
31.209882 19.081855 4.000000
31.209882 20.204317 4.000000
31.209882 21.326779 4.000000
31.209882 22.449241 4.000000
31.209882 23.571703 4.000000
31.209885 24.694165 4.000000
31.212772 25.813340 4.000000
31.102087 26.844917 4.000000
31.448671 30.141164 4.000000
31.072960 1.386048 4.000000
31.705567 3.064469 4.000000
31.591632 3.863347 4.000000
31.443715 4.489825 4.000000
31.443713 5.612310 4.000000
31.443713 6.734772 4.000000
31.443713 7.857234 4.000000
31.443713 8.979696 4.000000
31.443713 10.102158 4.000000
31.443713 11.224620 4.000000
31.443713 12.347083 4.000000
31.443713 13.469545 4.000000
31.443713 14.592007 4.000000
31.443713 15.714469 4.000000
31.443713 16.836931 4.000000
31.443713 17.959393 4.000000
31.443713 19.081855 4.000000
31.443713 20.204317 4.000000
31.443713 21.326779 4.000000
31.443713 22.449241 4.000000
31.443713 23.571703 4.000000
31.443715 24.694189 4.000000
31.591635 25.320666 4.000000
31.705563 26.119547 4.000000
31.072960 27.797966 4.000000
31.808910 -0.115726 4.000000
32.739508 1.452049 4.000000
32.535925 3.372402 4.000000
32.536741 4.489852 4.000000
32.536742 5.612310 4.000000
32.536742 6.734772 4.000000
32.536742 7.857234 4.000000
32.536742 8.979696 4.000000
32.536742 10.102158 4.000000
32.536742 11.224620 4.000000
32.536742 12.347083 4.000000
32.536742 13.469545 4.000000
32.536742 14.592007 4.000000
32.536742 15.714469 4.000000
32.536742 16.836931 4.000000
32.536742 17.959393 4.000000
32.536742 19.081855 4.000000
32.536742 20.204317 4.000000
32.536742 21.326779 4.000000
32.536742 22.449241 4.000000
32.536742 23.571703 4.000000
32.536741 24.694161 4.000000
32.535925 25.811608 4.000000
32.739508 27.731964 4.000000
31.808910 29.299739 4.000000
33.401965 2.118432 4.000000
31.881477 2.504947 4.000000
32.770185 3.365212 4.000000
32.770361 4.489845 4.000000
32.770361 5.612310 4.000000
32.770361 6.734772 4.000000
32.770361 7.857234 4.000000
32.770361 8.979696 4.000000
32.770361 10.102158 4.000000
32.770361 11.224620 4.000000
32.770361 12.347083 4.000000
32.770361 13.469545 4.000000
32.770361 14.592007 4.000000
32.770361 15.714469 4.000000
32.770361 16.836931 4.000000
32.770361 17.959393 4.000000
32.770361 19.081855 4.000000
32.770361 20.204317 4.000000
32.770361 21.326779 4.000000
32.770361 22.449241 4.000000
32.770361 23.571703 4.000000
32.770361 24.694168 4.000000
32.770185 25.818803 4.000000
31.881477 26.679066 4.000000
33.401965 27.065581 4.000000
32.059383 0.919628 4.000000
34.119687 2.079623 4.000000
33.863536 3.369114 4.000000
33.863540 4.489850 4.000000
33.863540 5.612310 4.000000
33.863540 6.734772 4.000000
33.863540 7.857234 4.000000
33.863540 8.979696 4.000000
33.863540 10.102158 4.000000
33.863540 11.224620 4.000000
33.863540 12.347083 4.000000
33.863540 13.469545 4.000000
33.863540 14.592007 4.000000
33.863540 15.714469 4.000000
33.863540 16.836931 4.000000
33.863540 17.959393 4.000000
33.863540 19.081855 4.000000
33.863540 20.204317 4.000000
33.863540 21.326779 4.000000
33.863540 22.449241 4.000000
33.863540 23.571703 4.000000
33.863540 24.694163 4.000000
33.863536 25.814898 4.000000
34.119686 27.104390 4.000000
32.059383 28.264386 4.000000
33.306240 1.807527 4.000000
34.802403 2.733138 4.000000
34.096926 3.366914 4.000000
34.096922 4.489848 4.000000
34.096922 5.612310 4.000000
34.096922 6.734772 4.000000
34.096922 7.857234 4.000000
34.096922 8.979696 4.000000
34.096922 10.102158 4.000000
34.096922 11.224620 4.000000
34.096922 12.347083 4.000000
34.096922 13.469545 4.000000
34.096922 14.592007 4.000000
34.096922 15.714469 4.000000
34.096922 16.836931 4.000000
34.096922 17.959393 4.000000
34.096922 19.081855 4.000000
34.096922 20.204317 4.000000
34.096922 21.326779 4.000000
34.096922 22.449241 4.000000
34.096922 23.571703 4.000000
34.096922 24.694165 4.000000
34.096926 25.817100 4.000000
34.802403 26.450875 4.000000
33.306240 27.376487 4.000000
35.616944 0.084222 4.000000
34.446690 2.254505 4.000000
35.190175 3.367608 4.000000
35.190196 4.489848 4.000000
35.190196 5.612310 4.000000
35.190196 6.734772 4.000000
35.190196 7.857234 4.000000
35.190196 8.979696 4.000000
35.190196 10.102158 4.000000
35.190196 11.224620 4.000000
35.190196 12.347083 4.000000
35.190196 13.469545 4.000000
35.190196 14.592007 4.000000
35.190196 15.714469 4.000000
35.190196 16.836931 4.000000
35.190196 17.959393 4.000000
35.190196 19.081855 4.000000
35.190196 20.204317 4.000000
35.190196 21.326779 4.000000
35.190196 22.449241 4.000000
35.190196 23.571703 4.000000
35.190196 24.694165 4.000000
35.190175 25.816405 4.000000
34.446690 26.929508 4.000000
35.616944 29.099791 4.000000
34.854002 1.642479 4.000000
35.432131 2.373646 4.000000
35.423427 3.367361 4.000000
35.423433 4.489848 4.000000
35.423433 5.612310 4.000000
35.423433 6.734772 4.000000
35.423433 7.857234 4.000000
35.423433 8.979696 4.000000
35.423433 10.102158 4.000000
35.423433 11.224620 4.000000
35.423433 12.347083 4.000000
35.423433 13.469545 4.000000
35.423433 14.592007 4.000000
35.423433 15.714469 4.000000
35.423433 16.836931 4.000000
35.423433 17.959393 4.000000
35.423433 19.081855 4.000000
35.423433 20.204317 4.000000
35.423433 21.326779 4.000000
35.423433 22.449241 4.000000
35.423433 23.571703 4.000000
35.423433 24.694165 4.000000
35.423427 25.816653 4.000000
35.432131 26.810367 4.000000
34.854002 27.541535 4.000000
35.624535 1.123820 4.000000
36.505907 2.156912 4.000000
36.516235 3.367398 4.000000
36.516236 4.489848 4.000000
36.516236 5.612310 4.000000
36.516236 6.734772 4.000000
36.516236 7.857234 4.000000
36.516236 8.979696 4.000000
36.516236 10.102158 4.000000
36.516236 11.224620 4.000000
36.516236 12.347083 4.000000
36.516236 13.469545 4.000000
36.516236 14.592007 4.000000
36.516236 15.714469 4.000000
36.516236 16.836931 4.000000
36.516236 17.959393 4.000000
36.516236 19.081855 4.000000
36.516236 20.204317 4.000000
36.516236 21.326779 4.000000
36.516236 22.449241 4.000000
36.516236 23.571703 4.000000
36.516236 24.694165 4.000000
36.516235 25.816615 4.000000
36.505907 27.027102 4.000000
35.624535 28.060194 4.000000
36.747081 1.123849 4.000000
36.747321 2.245087 4.000000
36.749836 3.367386 4.000000
36.749836 4.489848 4.000000
36.749836 5.612310 4.000000
36.749836 6.734772 4.000000
36.749836 7.857234 4.000000
36.749836 8.979696 4.000000
36.749836 10.102158 4.000000
36.749836 11.224620 4.000000
36.749836 12.347083 4.000000
36.749836 13.469545 4.000000
36.749836 14.592007 4.000000
36.749836 15.714469 4.000000
36.749836 16.836931 4.000000
36.749836 17.959393 4.000000
36.749836 19.081855 4.000000
36.749836 20.204317 4.000000
36.749836 21.326779 4.000000
36.749836 22.449241 4.000000
36.749836 23.571703 4.000000
36.749836 24.694165 4.000000
36.749836 25.816627 4.000000
36.747321 26.938926 4.000000
36.747081 28.060164 4.000000
37.869545 1.123847 4.000000
37.869544 2.244932 4.000000
37.869544 3.367386 4.000000
37.869544 4.489848 4.000000
37.869544 5.612310 4.000000
37.869544 6.734772 4.000000
37.869544 7.857234 4.000000
37.869544 8.979696 4.000000
37.869544 10.102158 4.000000
37.869544 11.224620 4.000000
37.869544 12.347083 4.000000
37.869544 13.469545 4.000000
37.869544 14.592007 4.000000
37.869544 15.714469 4.000000
37.869544 16.836931 4.000000
37.869544 17.959393 4.000000
37.869544 19.081855 4.000000
37.869544 20.204317 4.000000
37.869544 21.326779 4.000000
37.869544 22.449241 4.000000
37.869544 23.571703 4.000000
37.869544 24.694165 4.000000
37.869544 25.816627 4.000000
37.869544 26.939081 4.000000
37.869545 28.060166 4.000000
38.992007 1.123847 4.000000
38.992007 2.244932 4.000000
38.992007 3.367386 4.000000
38.992007 4.489848 4.000000
38.992007 5.612310 4.000000
38.992007 6.734772 4.000000
38.992007 7.857234 4.000000
38.992007 8.979696 4.000000
38.992007 10.102158 4.000000
38.992007 11.224620 4.000000
38.992007 12.347083 4.000000
38.992007 13.469545 4.000000
38.992007 14.592007 4.000000
38.992007 15.714469 4.000000
38.992007 16.836931 4.000000
38.992007 17.959393 4.000000
38.992007 19.081855 4.000000
38.992007 20.204317 4.000000
38.992007 21.326779 4.000000
38.992007 22.449241 4.000000
38.992007 23.571703 4.000000
38.992007 24.694165 4.000000
38.992007 25.816627 4.000000
38.992007 26.939081 4.000000
38.992007 28.060166 4.000000
40.114469 1.123847 4.000000
40.114469 2.244932 4.000000
40.114469 3.367386 4.000000
40.114469 4.489848 4.000000
40.114469 5.612310 4.000000
40.114469 6.734772 4.000000
40.114469 7.857234 4.000000
40.114469 8.979696 4.000000
40.114469 10.102158 4.000000
40.114469 11.224620 4.000000
40.114469 12.347083 4.000000
40.114469 13.469545 4.000000
40.114469 14.592007 4.000000
40.114469 15.714469 4.000000
40.114469 16.836931 4.000000
40.114469 17.959393 4.000000
40.114469 19.081855 4.000000
40.114469 20.204317 4.000000
40.114469 21.326779 4.000000
40.114469 22.449241 4.000000
[...]
POINT_DATA 1250
SCALARS m double
LOOKUP_TABLE default
1.000000
1.000000
1.000000
1.000000
1.000000
1.000000
1.000000
1.000000
1.000000
1.000000
1.000000
1.000000
1.000000
1.000000
1.000000
1.000000
1.000000
1.000000
1.000000
1.000000
1.000000
1.000000
1.000000
1.000000
1.000000
1.000000
1.000000
1.000000
1.000000
1.000000
1.000000
1.000000
1.000000
1.000000
1.000000
1.000000
1.000000
1.000000
1.000000
1.000000
1.000000
1.000000
1.000000
1.000000
1.000000
1.000000
1.000000
1.000000
1.000000
1.000000
1.000000
1.000000
1.000000
1.000000
1.000000
1.000000
1.000000
1.000000
1.000000
1.000000
1.000000
1.000000
1.000000
1.000000
1.000000
1.000000
1.000000
1.000000
1.000000
1.000000
1.000000
1.000000
1.000000
1.000000
1.000000
1.000000
1.000000
1.000000
1.000000
1.000000
1.000000
1.000000
1.000000
1.000000
1.000000
1.000000
1.000000
1.000000
1.000000
1.000000
1.000000
1.000000
1.000000
1.000000
1.000000
1.000000
1.000000
1.000000
1.000000
1.000000
1.000000
1.000000
1.000000
1.000000
1.000000
1.000000
1.000000
1.000000
1.000000
1.000000
1.000000
1.000000
1.000000
1.000000
1.000000
1.000000
1.000000
1.000000
1.000000
1.000000
1.000000
1.000000
1.000000
1.000000
1.000000
1.000000
1.000000
1.000000
1.000000
1.000000
1.000000
1.000000
1.000000
1.000000
1.000000
1.000000
1.000000
1.000000
1.000000
1.000000
1.000000
1.000000
1.000000
1.000000
1.000000
1.000000
1.000000
1.000000
1.000000
1.000000
1.000000
1.000000
1.000000
1.000000
1.000000
1.000000
1.000000
1.000000
1.000000
1.000000
1.000000
1.000000
1.000000
1.000000
1.000000
1.000000
1.000000
1.000000
1.000000
1.000000
1.000000
1.000000
1.000000
1.000000
1.000000
1.000000
1.000000
1.000000
1.000000
1.000000
1.000000
1.000000
1.000000
1.000000
1.000000
1.000000
1.000000
1.000000
1.000000
1.000000
1.000000
1.000000
1.000000
1.000000
1.000000
1.000000
1.000000
1.000000
1.000000
1.000000
1.000000
1.000000
1.000000
1.000000
1.000000
1.000000
1.000000
1.000000
1.000000
1.000000
1.000000
1.000000
1.000000
1.000000
1.000000
1.000000
1.000000
1.000000
1.000000
1.000000
1.000000
1.000000
1.000000
1.000000
1.000000
1.000000
1.000000
1.000000
1.000000
1.000000
1.000000
1.000000
1.000000
1.000000
1.000000
1.000000
1.000000
1.000000
1.000000
1.000000
1.000000
1.000000
1.000000
1.000000
1.000000
1.000000
1.000000
1.000000
1.000000
1.000000
1.000000
1.000000
1.000000
1.000000
1.000000
1.000000
1.000000
1.000000
1.000000
1.000000
1.000000
1.000000
1.000000
1.000000
1.000000
1.000000
1.000000
1.000000
1.000000
1.000000
1.000000
1.000000
1.000000
1.000000
1.000000
1.000000
1.000000
1.000000
1.000000
1.000000
1.000000
1.000000
1.000000
1.000000
1.000000
1.000000
1.000000
1.000000
1.000000
1.000000
1.000000
1.000000
1.000000
1.000000
1.000000
1.000000
1.000000
1.000000
1.000000
1.000000
1.000000
1.000000
1.000000
1.000000
1.000000
1.000000
1.000000
1.000000
1.000000
1.000000
1.000000
1.000000
1.000000
1.000000
1.000000
1.000000
1.000000
1.000000
1.000000
1.000000
1.000000
1.000000
1.000000
1.000000
1.000000
1.000000
1.000000
1.000000
1.000000
1.000000
1.000000
1.000000
1.000000
1.000000
1.000000
1.000000
1.000000
1.000000
1.000000
1.000000
1.000000
1.000000
1.000000
1.000000
1.000000
1.000000
1.000000
1.000000
1.000000
1.000000
1.000000
1.000000
1.000000
1.000000
1.000000
1.000000
1.000000
1.000000
1.000000
1.000000
1.000000
1.000000
1.000000
1.000000
1.000000
1.000000
1.000000
1.000000
1.000000
1.000000
1.000000
1.000000
1.000000
1.000000
1.000000
1.000000
1.000000
1.000000
1.000000
1.000000
1.000000
1.000000
1.000000
1.000000
1.000000
1.000000
1.000000
1.000000
1.000000
1.000000
1.000000
1.000000
1.000000
1.000000
1.000000
1.000000
1.000000
1.000000
1.000000
1.000000
1.000000
1.000000
1.000000
1.000000
1.000000
1.000000
1.000000
1.000000
1.000000
1.000000
1.000000
1.000000
1.000000
1.000000
1.000000
1.000000
1.000000
1.000000
1.000000
1.000000
1.000000
1.000000
1.000000
1.000000
1.000000
1.000000
1.000000
1.000000
1.000000
1.000000
1.000000
1.000000
1.000000
1.000000
1.000000
1.000000
1.000000
1.000000
1.000000
1.000000
1.000000
1.000000
1.000000
1.000000
1.000000
1.000000
1.000000
1.000000
1.000000
1.000000
1.000000
1.000000
1.000000
1.000000
1.000000
1.000000
1.000000
1.000000
1.000000
1.000000
1.000000
1.000000
1.000000
1.000000
1.000000
1.000000
1.000000
1.000000
1.000000
1.000000
1.000000
1.000000
1.000000
1.000000
1.000000
1.000000
1.000000
1.000000
1.000000
1.000000
1.000000
1.000000
1.000000
1.000000
1.000000
1.000000
1.000000
1.000000
1.000000
1.000000
1.000000
1.000000
1.000000
1.000000
1.000000
1.000000
1.000000
1.000000
1.000000
1.000000
1.000000
1.000000
1.000000
1.000000
1.000000
1.000000
1.000000
1.000000
1.000000
1.000000
1.000000
1.000000
1.000000
1.000000
1.000000
1.000000
1.000000
1.000000
1.000000
1.000000
1.000000
1.000000
1.000000
1.000000
1.000000
1.000000
1.000000
1.000000
1.000000
1.000000
1.000000
1.000000
1.000000
1.000000
1.000000
1.000000
1.000000
1.000000
1.000000
1.000000
1.000000
1.000000
1.000000
1.000000
1.000000
1.000000
1.000000
1.000000
1.000000
1.000000
1.000000
1.000000
1.000000
1.000000
1.000000
1.000000
1.000000
1.000000
1.000000
1.000000
1.000000
1.000000
1.000000
1.000000
1.000000
1.000000
1.000000
1.000000
1.000000
1.000000
1.000000
1.000000
1.000000
1.000000
1.000000
1.000000
1.000000
1.000000
1.000000
1.000000
1.000000
1.000000
1.000000
1.000000
1.000000
1.000000
1.000000
1.000000
1.000000
1.000000
1.000000
1.000000
1.000000
1.000000
1.000000
1.000000
1.000000
1.000000
1.000000
1.000000
1.000000
1.000000
1.000000
1.000000
1.000000
1.000000
1.000000
1.000000
1.000000
1.000000
1.000000
1.000000
1.000000
1.000000
1.000000
1.000000
1.000000
1.000000
1.000000
1.000000
1.000000
1.000000
1.000000
1.000000
1.000000
1.000000
1.000000
1.000000
1.000000
1.000000
1.000000
1.000000
1.000000
1.000000
1.000000
1.000000
1.000000
1.000000
1.000000
1.000000
1.000000
1.000000
1.000000
1.000000
1.000000
1.000000
1.000000
1.000000
1.000000
1.000000
1.000000
1.000000
1.000000
1.000000
1.000000
1.000000
1.000000
1.000000
1.000000
1.000000
1.000000
1.000000
1.000000
1.000000
1.000000
1.000000
1.000000
1.000000
1.000000
1.000000
1.000000
1.000000
1.000000
1.000000
1.000000
1.000000
1.000000
1.000000
1.000000
1.000000
1.000000
1.000000
1.000000
1.000000
1.000000
1.000000
1.000000
1.000000
1.000000
1.000000
1.000000
1.000000
1.000000
1.000000
1.000000
1.000000
1.000000
1.000000
1.000000
1.000000
1.000000
1.000000
1.000000
1.000000
1.000000
1.000000
1.000000
1.000000
1.000000
1.000000
1.000000
1.000000
1.000000
1.000000
1.000000
1.000000
1.000000
1.000000
1.000000
1.000000
1.000000
1.000000
1.000000
1.000000
1.000000
1.000000
1.000000
1.000000
1.000000
1.000000
1.000000
1.000000
1.000000
1.000000
1.000000
1.000000
1.000000
1.000000
1.000000
1.000000
1.000000
1.000000
1.000000
1.000000
1.000000
1.000000
1.000000
1.000000
1.000000
1.000000
1.000000
1.000000
1.000000
1.000000
1.000000
1.000000
1.000000
1.000000
1.000000
1.000000
1.000000
1.000000
1.000000
1.000000
1.000000
1.000000
1.000000
1.000000
1.000000
1.000000
1.000000
1.000000
1.000000
1.000000
1.000000
1.000000
1.000000
1.000000
1.000000
1.000000
1.000000
1.000000
1.000000
1.000000
1.000000
1.000000
1.000000
1.000000
1.000000
1.000000
1.000000
1.000000
1.000000
1.000000
1.000000
1.000000
1.000000
1.000000
1.000000
1.000000
1.000000
1.000000
1.000000
1.000000
1.000000
1.000000
1.000000
1.000000
1.000000
1.000000
1.000000
1.000000
1.000000
1.000000
1.000000
1.000000
1.000000
1.000000
1.000000
1.000000
1.000000
1.000000
1.000000
1.000000
1.000000
1.000000
1.000000
1.000000
1.000000
1.000000
1.000000
1.000000
1.000000
1.000000
1.000000
1.000000
1.000000
1.000000
1.000000
1.000000
1.000000
1.000000
1.000000
1.000000
1.000000
1.000000
1.000000
1.000000
1.000000
1.000000
1.000000
1.000000
1.000000
1.000000
1.000000
1.000000
1.000000
1.000000
1.000000
1.000000
1.000000
1.000000
1.000000
1.000000
1.000000
1.000000
1.000000
1.000000
1.000000
1.000000
1.000000
1.000000
1.000000
1.000000
1.000000
1.000000
1.000000
1.000000
1.000000
1.000000
1.000000
1.000000
1.000000
1.000000
1.000000
1.000000
1.000000
1.000000
1.000000
1.000000
1.000000
1.000000
1.000000
1.000000
1.000000
1.000000
1.000000
1.000000
1.000000
1.000000
1.000000
1.000000
1.000000
1.000000
1.000000
1.000000
1.000000
1.000000
1.000000
1.000000
1.000000
1.000000
1.000000
1.000000
1.000000
1.000000
1.000000
1.000000
1.000000
1.000000
1.000000
1.000000
1.000000
1.000000
1.000000
1.000000
1.000000
1.000000
1.000000
1.000000
1.000000
1.000000
1.000000
1.000000
1.000000
1.000000
1.000000
1.000000
1.000000
1.000000
1.000000
1.000000
1.000000
1.000000
1.000000
1.000000
1.000000
1.000000
1.000000
1.000000
1.000000
1.000000
1.000000
1.000000
1.000000
1.000000
1.000000
1.000000
1.000000
1.000000
1.000000
1.000000
1.000000
1.000000
1.000000
1.000000
1.000000
1.000000
1.000000
1.000000
1.000000
1.000000
1.000000
1.000000
1.000000
1.000000
1.000000
1.000000
1.000000
1.000000
1.000000
1.000000
1.000000
1.000000
1.000000
1.000000
1.000000
1.000000
1.000000
1.000000
1.000000
1.000000
1.000000
1.000000
1.000000
1.000000
1.000000
1.000000
1.000000
1.000000
1.000000
1.000000
1.000000
1.000000
1.000000
1.000000
1.000000
1.000000
1.000000
1.000000
1.000000
1.000000
1.000000
1.000000
1.000000
1.000000
1.000000
1.000000
1.000000
1.000000
1.000000
1.000000
1.000000
1.000000
1.000000
1.000000
1.000000
1.000000
1.000000
1.000000
1.000000
1.000000
1.000000
1.000000
1.000000
1.000000
1.000000
1.000000
1.000000
1.000000
1.000000
1.000000
1.000000
1.000000
1.000000
1.000000
1.000000
1.000000
1.000000
1.000000
1.000000
1.000000
1.000000
1.000000
1.000000
1.000000
1.000000
1.000000
1.000000
1.000000
1.000000
1.000000
1.000000
1.000000
1.000000
1.000000
1.000000
1.000000
1.000000
1.000000
1.000000
1.000000
1.000000
1.000000
1.000000
1.000000
1.000000
1.000000
1.000000
1.000000
1.000000
1.000000
1.000000
1.000000
1.000000
1.000000
1.000000
1.000000
1.000000
1.000000
1.000000
1.000000
1.000000
1.000000
1.000000
1.000000
1.000000
1.000000
1.000000
1.000000
1.000000
1.000000
1.000000
1.000000
1.000000
1.000000
1.000000
1.000000
1.000000
1.000000
1.000000
1.000000
1.000000
1.000000
1.000000
1.000000
1.000000
1.000000
1.000000
1.000000
1.000000
1.000000
1.000000
1.000000
1.000000
1.000000
1.000000
1.000000
1.000000
1.000000
1.000000
1.000000
1.000000
1.000000
1.000000
1.000000
1.000000
1.000000
1.000000
1.000000
1.000000
1.000000
1.000000
1.000000
1.000000
1.000000
1.000000
1.000000
1.000000
1.000000
1.000000
1.000000
1.000000
1.000000
1.000000
1.000000
1.000000
1.000000
1.000000
1.000000
1.000000
1.000000
1.000000
1.000000
1.000000
1.000000
1.000000
1.000000
1.000000
1.000000
1.000000
1.000000
1.000000
1.000000
1.000000
1.000000
1.000000
1.000000
1.000000
1.000000
1.000000
1.000000
1.000000
1.000000
1.000000
1.000000
1.000000
1.000000
1.000000
1.000000
1.000000
1.000000
1.000000
1.000000
1.000000
1.000000
1.000000
1.000000
1.000000
1.000000
1.000000
1.000000
1.000000
1.000000
1.000000
1.000000
1.000000
1.000000
1.000000
1.000000
1.000000
1.000000
1.000000
1.000000
1.000000
1.000000
1.000000
1.000000
1.000000
1.000000
1.000000
1.000000
1.000000
1.000000
1.000000
1.000000
1.000000
1.000000
1.000000
1.000000
1.000000
1.000000
1.000000
1.000000
1.000000
1.000000
1.000000
1.000000
1.000000
1.000000
1.000000
1.000000
1.000000
1.000000
1.000000
1.000000
1.000000
1.000000
1.000000
1.000000
VECTORS v double
9.743037 1.665830 0.000000
-6.587331 7.283245 0.000000
-6.090857 -0.062807 0.000000
-6.060680 -0.000089 0.000000
-6.060604 -0.000001 0.000000
-6.060603 0.000000 0.000000
-6.060603 0.000000 0.000000
-6.060603 -0.000000 0.000000
-6.060603 0.000000 0.000000
-6.060603 -0.000000 0.000000
-6.060603 -0.000000 0.000000
-6.060603 0.000000 0.000000
-6.060603 -0.000000 0.000000
-6.060603 -0.000000 0.000000
-6.060603 -0.000000 0.000000
-6.060603 0.000000 0.000000
-6.060603 -0.000000 0.000000
-6.060603 -0.000000 0.000000
-6.060603 -0.000000 0.000000
-6.060603 -0.000000 0.000000
-6.060604 0.000001 0.000000
-6.060680 0.000098 0.000000
-6.090861 0.062844 0.000000
-6.587327 -7.283249 0.000000
9.743037 -1.665830 0.000000
-2.631148 -13.727162 0.000000
8.026000 -2.924630 0.000000
10.016088 0.063177 0.000000
6.038357 -0.000237 0.000000
6.038105 -0.000002 0.000000
6.038105 0.000000 0.000000
6.038105 0.000000 0.000000
6.038105 -0.000000 0.000000
6.038105 0.000000 0.000000
6.038105 -0.000000 0.000000
6.038105 0.000000 0.000000
6.038105 0.000000 0.000000
6.038105 -0.000000 0.000000
6.038105 -0.000000 0.000000
6.038105 -0.000000 0.000000
6.038105 0.000000 0.000000
6.038105 -0.000000 0.000000
6.038105 -0.000000 0.000000
6.038105 -0.000000 0.000000
6.038105 -0.000000 0.000000
6.038105 0.000002 0.000000
6.038357 0.000203 0.000000
10.016087 -0.063220 0.000000
8.025997 2.924635 0.000000
-2.631148 13.727162 0.000000
-0.478518 -5.219382 0.000000
0.655876 -3.284255 0.000000
-5.098179 16.411038 0.000000
-6.035568 -0.002830 0.000000
-6.036152 -0.000004 0.000000
-6.036153 0.000000 0.000000
-6.036153 0.000000 0.000000
-6.036153 -0.000000 0.000000
-6.036153 0.000000 0.000000
-6.036153 -0.000000 0.000000
-6.036153 0.000000 0.000000
-6.036153 0.000000 0.000000
-6.036153 -0.000000 0.000000
-6.036153 -0.000000 0.000000
-6.036153 -0.000000 0.000000
-6.036153 0.000000 0.000000
-6.036153 -0.000000 0.000000
-6.036153 -0.000000 0.000000
-6.036153 -0.000000 0.000000
-6.036153 -0.000000 0.000000
-6.036152 0.000004 0.000000
-6.035568 0.002869 0.000000
-5.098072 -16.411058 0.000000
0.655772 3.284341 0.000000
-0.478520 5.219381 0.000000
-0.344064 -3.830283 0.000000
-6.951844 -10.523226 0.000000
6.153930 0.211748 0.000000
5.978963 0.000078 0.000000
5.978847 -0.000002 0.000000
5.978848 0.000000 0.000000
5.978848 0.000000 0.000000
5.978848 -0.000000 0.000000
5.978848 0.000000 0.000000
5.978848 -0.000000 0.000000
5.978848 0.000000 0.000000
5.978848 0.000000 0.000000
5.978848 -0.000000 0.000000
5.978848 -0.000000 0.000000
5.978848 -0.000000 0.000000
5.978848 0.000000 0.000000
5.978848 -0.000000 0.000000
5.978848 -0.000000 0.000000
5.978848 -0.000000 0.000000
5.978848 -0.000000 0.000000
5.978847 0.000002 0.000000
5.978963 -0.000114 0.000000
6.153964 -0.211885 0.000000
-6.951847 10.523226 0.000000
-0.344064 3.830283 0.000000
5.427167 5.870429 0.000000
-9.648498 2.213706 0.000000
-6.177466 -0.149885 0.000000
-5.975837 -0.000163 0.000000
-5.975578 -0.000001 0.000000
-5.975577 -0.000000 0.000000
-5.975577 0.000000 0.000000
-5.975577 -0.000000 0.000000
-5.975577 0.000000 0.000000
-5.975577 -0.000000 0.000000
-5.975577 0.000000 0.000000
-5.975577 0.000000 0.000000
-5.975577 -0.000000 0.000000
-5.975577 -0.000000 0.000000
-5.975577 -0.000000 0.000000
-5.975577 0.000000 0.000000
-5.975577 -0.000000 0.000000
-5.975577 -0.000000 0.000000
-5.975577 -0.000000 0.000000
-5.975577 0.000000 0.000000
-5.975578 0.000001 0.000000
-5.975837 0.000191 0.000000
-6.177501 0.149991 0.000000
-9.648498 -2.213708 0.000000
5.427168 -5.870434 0.000000
-9.975795 -1.042974 0.000000
-8.220901 -5.182261 0.000000
5.915547 0.072553 0.000000
5.910513 0.000075 0.000000
5.910492 0.000000 0.000000
5.910492 0.000000 0.000000
5.910492 0.000000 0.000000
5.910492 -0.000000 0.000000
5.910492 0.000000 0.000000
5.910492 -0.000000 0.000000
5.910492 0.000000 0.000000
5.910492 0.000000 0.000000
5.910492 -0.000000 0.000000
5.910492 -0.000000 0.000000
5.910492 -0.000000 0.000000
5.910492 0.000000 0.000000
5.910492 -0.000000 0.000000
5.910492 -0.000000 0.000000
5.910492 -0.000000 0.000000
5.910492 -0.000000 0.000000
5.910492 -0.000000 0.000000
5.910513 -0.000090 0.000000
5.915551 -0.072611 0.000000
-8.220918 5.182237 0.000000
-9.975795 1.042974 0.000000
-9.078718 4.061583 0.000000
8.067541 5.217287 0.000000
-5.911175 -0.045600 0.000000
-5.906903 -0.000044 0.000000
-5.906882 -0.000000 0.000000
-5.906882 -0.000000 0.000000
-5.906882 -0.000000 0.000000
-5.906882 -0.000000 0.000000
-5.906882 0.000000 0.000000
-5.906882 -0.000000 0.000000
-5.906882 0.000000 0.000000
-5.906882 0.000000 0.000000
-5.906882 -0.000000 0.000000
-5.906882 -0.000000 0.000000
-5.906882 -0.000000 0.000000
-5.906882 0.000000 0.000000
-5.906882 -0.000000 0.000000
-5.906882 -0.000000 0.000000
-5.906882 0.000000 0.000000
-5.906882 0.000000 0.000000
-5.906882 0.000000 0.000000
-5.906903 0.000053 0.000000
-5.911179 0.045635 0.000000
8.067541 -5.217286 0.000000
-9.078716 -4.061571 0.000000
4.837054 -9.998023 0.000000
7.151804 6.345083 0.000000
5.870914 0.007246 0.000000
5.868070 -0.000008 0.000000
5.868073 0.000000 0.000000
5.868073 0.000000 0.000000
5.868073 -0.000000 0.000000
5.868073 -0.000000 0.000000
5.868073 0.000000 0.000000
5.868073 -0.000000 0.000000
5.868073 -0.000000 0.000000
5.868073 0.000000 0.000000
5.868073 -0.000000 0.000000
5.868073 -0.000000 0.000000
5.868073 -0.000000 0.000000
5.868073 0.000000 0.000000
5.868073 -0.000000 0.000000
5.868073 -0.000000 0.000000
5.868073 0.000000 0.000000
5.868073 -0.000000 0.000000
5.868073 -0.000000 0.000000
5.868070 0.000005 0.000000
5.870914 -0.007256 0.000000
7.151820 -6.345063 0.000000
4.837054 9.998023 0.000000
-5.836389 6.183292 0.000000
-9.757995 2.427845 0.000000
-5.869609 -0.004783 0.000000
-5.865095 -0.000002 0.000000
-5.865095 -0.000000 0.000000
-5.865095 0.000000 0.000000
-5.865095 -0.000000 0.000000
-5.865095 -0.000000 0.000000
-5.865095 0.000000 0.000000
-5.865095 -0.000000 0.000000
-5.865095 -0.000000 0.000000
-5.865095 0.000000 0.000000
-5.865095 -0.000000 0.000000
-5.865095 -0.000000 0.000000
-5.865095 -0.000000 0.000000
-5.865095 0.000000 0.000000
-5.865095 -0.000000 0.000000
-5.865095 -0.000000 0.000000
-5.865095 0.000000 0.000000
-5.865095 -0.000000 0.000000
-5.865095 0.000000 0.000000
-5.865095 0.000003 0.000000
-5.869609 0.004788 0.000000
-9.757995 -2.427845 0.000000
-5.836389 -6.183292 0.000000
-10.002179 0.004016 0.000000
8.826970 -2.296066 0.000000
5.973578 0.000504 0.000000
5.973462 -0.000001 0.000000
5.973460 0.000000 0.000000
5.973460 0.000000 0.000000
5.973460 -0.000000 0.000000
5.973460 -0.000000 0.000000
5.973460 0.000000 0.000000
5.973460 -0.000000 0.000000
5.973460 -0.000000 0.000000
5.973460 0.000000 0.000000
5.973460 -0.000000 0.000000
5.973460 -0.000000 0.000000
5.973460 -0.000000 0.000000
5.973460 0.000000 0.000000
5.973460 -0.000000 0.000000
5.973460 -0.000000 0.000000
5.973460 0.000000 0.000000
5.973460 -0.000000 0.000000
5.973460 -0.000000 0.000000
5.973462 0.000001 0.000000
5.973578 -0.000505 0.000000
8.826969 2.296066 0.000000
-10.002179 -0.004016 0.000000
-10.000097 0.005105 0.000000
-9.082449 0.320719 0.000000
-5.973382 -0.000158 0.000000
-5.973250 0.000000 0.000000
-5.973247 -0.000000 0.000000
-5.973247 0.000000 0.000000
-5.973247 -0.000000 0.000000
-5.973247 -0.000000 0.000000
-5.973247 0.000000 0.000000
-5.973247 -0.000000 0.000000
-5.973247 -0.000000 0.000000
-5.973247 0.000000 0.000000
-5.973247 -0.000000 0.000000
-5.973247 -0.000000 0.000000
-5.973247 -0.000000 0.000000
-5.973247 0.000000 0.000000
-5.973247 -0.000000 0.000000
-5.973247 -0.000000 0.000000
-5.973247 0.000000 0.000000
-5.973247 -0.000000 0.000000
-5.973247 0.000000 0.000000
-5.973250 -0.000000 0.000000
-5.973382 0.000159 0.000000
-9.082449 -0.320719 0.000000
-10.000097 -0.005105 0.000000
-10.000005 0.004957 0.000000
-10.000025 0.000023 0.000000
-10.000030 0.000000 0.000000
-10.000030 -0.000000 0.000000
-10.000030 0.000000 0.000000
-10.000030 0.000000 0.000000
-10.000030 -0.000000 0.000000
-10.000030 -0.000000 0.000000
-10.000030 0.000000 0.000000
-10.000030 -0.000000 0.000000
-10.000030 0.000000 0.000000
-10.000030 0.000000 0.000000
-10.000030 -0.000000 0.000000
-10.000030 -0.000000 0.000000
-10.000030 -0.000000 0.000000
-10.000030 0.000000 0.000000
-10.000030 -0.000000 0.000000
-10.000030 -0.000000 0.000000
-10.000030 0.000000 0.000000
-10.000030 0.000000 0.000000
-10.000030 -0.000000 0.000000
-10.000030 0.000000 0.000000
-10.000030 -0.000000 0.000000
-10.000025 -0.000023 0.000000
-10.000005 -0.004957 0.000000
-10.000000 0.004954 0.000000
-10.000000 0.000021 0.000000
-10.000000 -0.000000 0.000000
-10.000000 -0.000000 0.000000
-10.000000 0.000000 0.000000
-10.000000 0.000000 0.000000