# vtk DataFile Version 4.0
hesp visualization file
ASCII
DATASET UNSTRUCTURED_GRID
POINTS 1250 double
30.144717 1.124309 4.000000
30.144724 2.244961 4.000000
30.144724 3.367386 4.000000
30.144724 4.489848 4.000000
30.144724 5.612310 4.000000
30.144724 6.734772 4.000000
30.144724 7.857234 4.000000
30.144724 8.979696 4.000000
30.144724 10.102158 4.000000
30.144724 11.224620 4.000000
30.144724 12.347083 4.000000
30.144724 13.469545 4.000000
30.144724 14.592007 4.000000
30.144724 15.714469 4.000000
30.144724 16.836931 4.000000
30.144724 17.959393 4.000000
30.144724 19.081855 4.000000
30.144724 20.204317 4.000000
30.144724 21.326779 4.000000
30.144724 22.449241 4.000000
30.144724 23.571703 4.000000
30.144724 24.694165 4.000000
30.144724 25.816627 4.000000
30.144724 26.939052 4.000000
30.144717 28.059704 4.000000
31.181936 1.120499 4.000000
31.181914 2.244868 4.000000
31.181914 3.367386 4.000000
31.181914 4.489848 4.000000
31.181914 5.612310 4.000000
31.181914 6.734772 4.000000
31.181914 7.857234 4.000000
31.181914 8.979696 4.000000
31.181914 10.102158 4.000000
31.181914 11.224620 4.000000
31.181914 12.347083 4.000000
31.181914 13.469545 4.000000
31.181914 14.592007 4.000000
31.181914 15.714469 4.000000
31.181914 16.836931 4.000000
31.181914 17.959393 4.000000
31.181914 19.081855 4.000000
31.181914 20.204317 4.000000
31.181914 21.326779 4.000000
31.181914 22.449241 4.000000
31.181914 23.571703 4.000000
31.181914 24.694165 4.000000
31.181914 25.816627 4.000000
31.181914 26.939145 4.000000
31.181936 28.063514 4.000000
31.471303 1.124445 4.000000
31.471330 2.244967 4.000000
31.471331 3.367386 4.000000
31.471331 4.489848 4.000000
31.471331 5.612310 4.000000
31.471331 6.734772 4.000000
31.471331 7.857234 4.000000
31.471331 8.979696 4.000000
31.471331 10.102158 4.000000
31.471331 11.224620 4.000000
31.471331 12.347083 4.000000
31.471331 13.469545 4.000000
31.471331 14.592007 4.000000
31.471331 15.714469 4.000000
31.471331 16.836931 4.000000
31.471331 17.959393 4.000000
31.471331 19.081855 4.000000
31.471331 20.204317 4.000000
31.471331 21.326779 4.000000
31.471331 22.449241 4.000000
31.471331 23.571703 4.000000
31.471331 24.694165 4.000000
31.471331 25.816627 4.000000
31.471330 26.939046 4.000000
31.471303 28.059568 4.000000
32.508529 1.122128 4.000000
32.508527 2.244908 4.000000
32.508527 3.367386 4.000000
32.508527 4.489848 4.000000
32.508527 5.612310 4.000000
32.508527 6.734772 4.000000
32.508527 7.857234 4.000000
32.508527 8.979696 4.000000
32.508527 10.102158 4.000000
32.508527 11.224620 4.000000
32.508527 12.347083 4.000000
32.508527 13.469545 4.000000
32.508527 14.592007 4.000000
32.508527 15.714469 4.000000
32.508527 16.836931 4.000000
32.508527 17.959393 4.000000
32.508527 19.081855 4.000000
32.508527 20.204317 4.000000
32.508527 21.326779 4.000000
32.508527 22.449241 4.000000
32.508527 23.571703 4.000000
32.508527 24.694165 4.000000
32.508527 25.816627 4.000000
32.508527 26.939105 4.000000
32.508529 28.061885 4.000000
32.797654 1.123023 4.000000
32.797652 2.244931 4.000000
32.797652 3.367386 4.000000
32.797652 4.489848 4.000000
32.797652 5.612310 4.000000
32.797652 6.734772 4.000000
32.797652 7.857234 4.000000
32.797652 8.979696 4.000000
32.797652 10.102158 4.000000
32.797652 11.224620 4.000000
32.797652 12.347083 4.000000
32.797652 13.469545 4.000000
32.797652 14.592007 4.000000
32.797652 15.714469 4.000000
32.797652 16.836931 4.000000
32.797652 17.959393 4.000000
32.797652 19.081855 4.000000
32.797652 20.204317 4.000000
32.797652 21.326779 4.000000
32.797652 22.449241 4.000000
32.797652 23.571703 4.000000
32.797652 24.694165 4.000000
32.797652 25.816627 4.000000
32.797652 26.939082 4.000000
32.797654 28.060990 4.000000
33.834772 1.122833 4.000000
33.834772 2.244927 4.000000
33.834772 3.367386 4.000000
33.834772 4.489848 4.000000
33.834772 5.612310 4.000000
33.834772 6.734772 4.000000
33.834772 7.857234 4.000000
33.834772 8.979696 4.000000
33.834772 10.102158 4.000000
33.834772 11.224620 4.000000
33.834772 12.347083 4.000000
33.834772 13.469545 4.000000
33.834772 14.592007 4.000000
33.834772 15.714469 4.000000
33.834772 16.836931 4.000000
33.834772 17.959393 4.000000
33.834772 19.081855 4.000000
33.834772 20.204317 4.000000
33.834772 21.326779 4.000000
33.834772 22.449241 4.000000
33.834772 23.571703 4.000000
33.834772 24.694165 4.000000
33.834772 25.816627 4.000000
33.834772 26.939087 4.000000
33.834772 28.061180 4.000000
34.957234 1.122833 4.000000
34.957234 2.244927 4.000000
34.957234 3.367386 4.000000
34.957234 4.489848 4.000000
34.957234 5.612310 4.000000
34.957234 6.734772 4.000000
34.957234 7.857234 4.000000
34.957234 8.979696 4.000000
34.957234 10.102158 4.000000
34.957234 11.224620 4.000000
34.957234 12.347083 4.000000
34.957234 13.469545 4.000000
34.957234 14.592007 4.000000
34.957234 15.714469 4.000000
34.957234 16.836931 4.000000
34.957234 17.959393 4.000000
34.957234 19.081855 4.000000
34.957234 20.204317 4.000000
34.957234 21.326779 4.000000
34.957234 22.449241 4.000000
34.957234 23.571703 4.000000
34.957234 24.694165 4.000000
34.957234 25.816627 4.000000
34.957234 26.939087 4.000000
34.957234 28.061180 4.000000
36.079696 1.122833 4.000000
36.079696 2.244927 4.000000
36.079696 3.367386 4.000000
36.079696 4.489848 4.000000
36.079696 5.612310 4.000000
36.079696 6.734772 4.000000
36.079696 7.857234 4.000000
36.079696 8.979696 4.000000
36.079696 10.102158 4.000000
36.079696 11.224620 4.000000
36.079696 12.347083 4.000000
36.079696 13.469545 4.000000
36.079696 14.592007 4.000000
36.079696 15.714469 4.000000
36.079696 16.836931 4.000000
36.079696 17.959393 4.000000
36.079696 19.081855 4.000000
36.079696 20.204317 4.000000
36.079696 21.326779 4.000000
36.079696 22.449241 4.000000
36.079696 23.571703 4.000000
36.079696 24.694165 4.000000
36.079696 25.816627 4.000000
36.079696 26.939087 4.000000
36.079696 28.061180 4.000000
37.202158 1.122833 4.000000
37.202158 2.244927 4.000000
37.202158 3.367386 4.000000
37.202158 4.489848 4.000000
37.202158 5.612310 4.000000
37.202158 6.734772 4.000000
37.202158 7.857234 4.000000
37.202158 8.979696 4.000000
37.202158 10.102158 4.000000
37.202158 11.224620 4.000000
37.202158 12.347083 4.000000
37.202158 13.469545 4.000000
37.202158 14.592007 4.000000
37.202158 15.714469 4.000000
37.202158 16.836931 4.000000
37.202158 17.959393 4.000000
37.202158 19.081855 4.000000
37.202158 20.204317 4.000000
37.202158 21.326779 4.000000
37.202158 22.449241 4.000000
37.202158 23.571703 4.000000
37.202158 24.694165 4.000000
37.202158 25.816627 4.000000
37.202158 26.939087 4.000000
37.202158 28.061180 4.000000
38.324620 1.122833 4.000000
38.324620 2.244927 4.000000
38.324620 3.367386 4.000000
38.324620 4.489848 4.000000
38.324620 5.612310 4.000000
38.324620 6.734772 4.000000
38.324620 7.857234 4.000000
38.324620 8.979696 4.000000
38.324620 10.102158 4.000000
38.324620 11.224620 4.000000
38.324620 12.347083 4.000000
38.324620 13.469545 4.000000
38.324620 14.592007 4.000000
38.324620 15.714469 4.000000
38.324620 16.836931 4.000000
38.324620 17.959393 4.000000
38.324620 19.081855 4.000000
38.324620 20.204317 4.000000
38.324620 21.326779 4.000000
38.324620 22.449241 4.000000
38.324620 23.571703 4.000000
38.324620 24.694165 4.000000
38.324620 25.816627 4.000000
38.324620 26.939087 4.000000
38.324620 28.061180 4.000000
39.447083 1.122833 4.000000
39.447083 2.244927 4.000000
39.447083 3.367386 4.000000
39.447083 4.489848 4.000000
39.447083 5.612310 4.000000
39.447083 6.734772 4.000000
39.447083 7.857234 4.000000
39.447083 8.979696 4.000000
39.447083 10.102158 4.000000
39.447083 11.224620 4.000000
39.447083 12.347083 4.000000
39.447083 13.469545 4.000000
39.447083 14.592007 4.000000
39.447083 15.714469 4.000000
39.447083 16.836931 4.000000
39.447083 17.959393 4.000000
39.447083 19.081855 4.000000
39.447083 20.204317 4.000000
39.447083 21.326779 4.000000
39.447083 22.449241 4.000000
39.447083 23.571703 4.000000
39.447083 24.694165 4.000000
39.447083 25.816627 4.000000
39.447083 26.939087 4.000000
39.447083 28.061180 4.000000
40.569545 1.122833 4.000000
40.569545 2.244927 4.000000
40.569545 3.367386 4.000000
40.569545 4.489848 4.000000
40.569545 5.612310 4.000000
40.569545 6.734772 4.000000
40.569545 7.857234 4.000000
40.569545 8.979696 4.000000
40.569545 10.102158 4.000000
40.569545 11.224620 4.000000
40.569545 12.347083 4.000000
40.569545 13.469545 4.000000
40.569545 14.592007 4.000000
40.569545 15.714469 4.000000
40.569545 16.836931 4.000000
40.569545 17.959393 4.000000
40.569545 19.081855 4.000000
40.569545 20.204317 4.000000
40.569545 21.326779 4.000000
40.569545 22.449241 4.000000
40.569545 23.571703 4.000000
40.569545 24.694165 4.000000
40.569545 25.816627 4.000000
40.569545 26.939087 4.000000
40.569545 28.061180 4.000000
41.692007 1.122833 4.000000
41.692007 2.244927 4.000000
41.692007 3.367386 4.000000
41.692007 4.489848 4.000000
41.692007 5.612310 4.000000
41.692007 6.734772 4.000000
41.692007 7.857234 4.000000
41.692007 8.979696 4.000000
41.692007 10.102158 4.000000
41.692007 11.224620 4.000000
41.692007 12.347083 4.000000
41.692007 13.469545 4.000000
41.692007 14.592007 4.000000
41.692007 15.714469 4.000000
41.692007 16.836931 4.000000
41.692007 17.959393 4.000000
41.692007 19.081855 4.000000
41.692007 20.204317 4.000000
41.692007 21.326779 4.000000
41.692007 22.449241 4.000000
41.692007 23.571703 4.000000
41.692007 24.694165 4.000000
41.692007 25.816627 4.000000
41.692007 26.939087 4.000000
41.692007 28.061180 4.000000
42.814469 1.122833 4.000000
42.814469 2.244927 4.000000
42.814469 3.367386 4.000000
42.814469 4.489848 4.000000
42.814469 5.612310 4.000000
42.814469 6.734772 4.000000
42.814469 7.857234 4.000000
42.814469 8.979696 4.000000
42.814469 10.102158 4.000000
42.814469 11.224620 4.000000
42.814469 12.347083 4.000000
42.814469 13.469545 4.000000
42.814469 14.592007 4.000000
42.814469 15.714469 4.000000
42.814469 16.836931 4.000000
42.814469 17.959393 4.000000
42.814469 19.081855 4.000000
42.814469 20.204317 4.000000
42.814469 21.326779 4.000000
42.814469 22.449241 4.000000
[...]
POINT_DATA 1250
SCALARS m double
LOOKUP_TABLE default
1.000000
1.000000
1.000000
1.000000
1.000000
1.000000
1.000000
1.000000
1.000000
1.000000
1.000000
1.000000
1.000000
1.000000
1.000000
1.000000
1.000000
1.000000
1.000000
1.000000
1.000000
1.000000
1.000000
1.000000
1.000000
1.000000
1.000000
1.000000
1.000000
1.000000
1.000000
1.000000
1.000000
1.000000
1.000000
1.000000
1.000000
1.000000
1.000000
1.000000
1.000000
1.000000
1.000000
1.000000
1.000000
1.000000
1.000000
1.000000
1.000000
1.000000
1.000000
1.000000
1.000000
1.000000
1.000000
1.000000
1.000000
1.000000
1.000000
1.000000
1.000000
1.000000
1.000000
1.000000
1.000000
1.000000
1.000000
1.000000
1.000000
1.000000
1.000000
1.000000
1.000000
1.000000
1.000000
1.000000
1.000000
1.000000
1.000000
1.000000
1.000000
1.000000
1.000000
1.000000
1.000000
1.000000
1.000000
1.000000
1.000000
1.000000
1.000000
1.000000
1.000000
1.000000
1.000000
1.000000
1.000000
1.000000
1.000000
1.000000
1.000000
1.000000
1.000000
1.000000
1.000000
1.000000
1.000000
1.000000
1.000000
1.000000
1.000000
1.000000
1.000000
1.000000
1.000000
1.000000
1.000000
1.000000
1.000000
1.000000
1.000000
1.000000
1.000000
1.000000
1.000000
1.000000
1.000000
1.000000
1.000000
1.000000
1.000000
1.000000
1.000000
1.000000
1.000000
1.000000
1.000000
1.000000
1.000000
1.000000
1.000000
1.000000
1.000000
1.000000
1.000000
1.000000
1.000000
1.000000
1.000000
1.000000
1.000000
1.000000
1.000000
1.000000
1.000000
1.000000
1.000000
1.000000
1.000000
1.000000
1.000000
1.000000
1.000000
1.000000
1.000000
1.000000
1.000000
1.000000
1.000000
1.000000
1.000000
1.000000
1.000000
1.000000
1.000000
1.000000
1.000000
1.000000
1.000000
1.000000
1.000000
1.000000
1.000000
1.000000
1.000000
1.000000
1.000000
1.000000
1.000000
1.000000
1.000000
1.000000
1.000000
1.000000
1.000000
1.000000
1.000000
1.000000
1.000000
1.000000
1.000000
1.000000
1.000000
1.000000
1.000000
1.000000
1.000000
1.000000
1.000000
1.000000
1.000000
1.000000
1.000000
1.000000
1.000000
1.000000
1.000000
1.000000
1.000000
1.000000
1.000000
1.000000
1.000000
1.000000
1.000000
1.000000
1.000000
1.000000
1.000000
1.000000
1.000000
1.000000
1.000000
1.000000
1.000000
1.000000
1.000000
1.000000
1.000000
1.000000
1.000000
1.000000
1.000000
1.000000
1.000000
1.000000
1.000000
1.000000
1.000000
1.000000
1.000000
1.000000
1.000000
1.000000
1.000000
1.000000
1.000000
1.000000
1.000000
1.000000
1.000000
1.000000
1.000000
1.000000
1.000000
1.000000
1.000000
1.000000
1.000000
1.000000
1.000000
1.000000
1.000000
1.000000
1.000000
1.000000
1.000000
1.000000
1.000000
1.000000
1.000000
1.000000
1.000000
1.000000
1.000000
1.000000
1.000000
1.000000
1.000000
1.000000
1.000000
1.000000
1.000000
1.000000
1.000000
1.000000
1.000000
1.000000
1.000000
1.000000
1.000000
1.000000
1.000000
1.000000
1.000000
1.000000
1.000000
1.000000
1.000000
1.000000
1.000000
1.000000
1.000000
1.000000
1.000000
1.000000
1.000000
1.000000
1.000000
1.000000
1.000000
1.000000
1.000000
1.000000
1.000000
1.000000
1.000000
1.000000
1.000000
1.000000
1.000000
1.000000
1.000000
1.000000
1.000000
1.000000
1.000000
1.000000
1.000000
1.000000
1.000000
1.000000
1.000000
1.000000
1.000000
1.000000
1.000000
1.000000
1.000000
1.000000
1.000000
1.000000
1.000000
1.000000
1.000000
1.000000
1.000000
1.000000
1.000000
1.000000
1.000000
1.000000
1.000000
1.000000
1.000000
1.000000
1.000000
1.000000
1.000000
1.000000
1.000000
1.000000
1.000000
1.000000
1.000000
1.000000
1.000000
1.000000
1.000000
1.000000
1.000000
1.000000
1.000000
1.000000
1.000000
1.000000
1.000000
1.000000
1.000000
1.000000
1.000000
1.000000
1.000000
1.000000
1.000000
1.000000
1.000000
1.000000
1.000000
1.000000
1.000000
1.000000
1.000000
1.000000
1.000000
1.000000
1.000000
1.000000
1.000000
1.000000
1.000000
1.000000
1.000000
1.000000
1.000000
1.000000
1.000000
1.000000
1.000000
1.000000
1.000000
1.000000
1.000000
1.000000
1.000000
1.000000
1.000000
1.000000
1.000000
1.000000
1.000000
1.000000
1.000000
1.000000
1.000000
1.000000
1.000000
1.000000
1.000000
1.000000
1.000000
1.000000
1.000000
1.000000
1.000000
1.000000
1.000000
1.000000
1.000000
1.000000
1.000000
1.000000
1.000000
1.000000
1.000000
1.000000
1.000000
1.000000
1.000000
1.000000
1.000000
1.000000
1.000000
1.000000
1.000000
1.000000
1.000000
1.000000
1.000000
1.000000
1.000000
1.000000
1.000000
1.000000
1.000000
1.000000
1.000000
1.000000
1.000000
1.000000
1.000000
1.000000
1.000000
1.000000
1.000000
1.000000
1.000000
1.000000
1.000000
1.000000
1.000000
1.000000
1.000000
1.000000
1.000000
1.000000
1.000000
1.000000
1.000000
1.000000
1.000000
1.000000
1.000000
1.000000
1.000000
1.000000
1.000000
1.000000
1.000000
1.000000
1.000000
1.000000
1.000000
1.000000
1.000000
1.000000
1.000000
1.000000
1.000000
1.000000
1.000000
1.000000
1.000000
1.000000
1.000000
1.000000
1.000000
1.000000
1.000000
1.000000
1.000000
1.000000
1.000000
1.000000
1.000000
1.000000
1.000000
1.000000
1.000000
1.000000
1.000000
1.000000
1.000000
1.000000
1.000000
1.000000
1.000000
1.000000
1.000000
1.000000
1.000000
1.000000
1.000000
1.000000
1.000000
1.000000
1.000000
1.000000
1.000000
1.000000
1.000000
1.000000
1.000000
1.000000
1.000000
1.000000
1.000000
1.000000
1.000000
1.000000
1.000000
1.000000
1.000000
1.000000
1.000000
1.000000
1.000000
1.000000
1.000000
1.000000
1.000000
1.000000
1.000000
1.000000
1.000000
1.000000
1.000000
1.000000
1.000000
1.000000
1.000000
1.000000
1.000000
1.000000
1.000000
1.000000
1.000000
1.000000
1.000000
1.000000
1.000000
1.000000
1.000000
1.000000
1.000000
1.000000
1.000000
1.000000
1.000000
1.000000
1.000000
1.000000
1.000000
1.000000
1.000000
1.000000
1.000000
1.000000
1.000000
1.000000
1.000000
1.000000
1.000000
1.000000
1.000000
1.000000
1.000000
1.000000
1.000000
1.000000
1.000000
1.000000
1.000000
1.000000
1.000000
1.000000
1.000000
1.000000
1.000000
1.000000
1.000000
1.000000
1.000000
1.000000
1.000000
1.000000
1.000000
1.000000
1.000000
1.000000
1.000000
1.000000
1.000000
1.000000
1.000000
1.000000
1.000000
1.000000
1.000000
1.000000
1.000000
1.000000
1.000000
1.000000
1.000000
1.000000
1.000000
1.000000
1.000000
1.000000
1.000000
1.000000
1.000000
1.000000
1.000000
1.000000
1.000000
1.000000
1.000000
1.000000
1.000000
1.000000
1.000000
1.000000
1.000000
1.000000
1.000000
1.000000
1.000000
1.000000
1.000000
1.000000
1.000000
1.000000
1.000000
1.000000
1.000000
1.000000
1.000000
1.000000
1.000000
1.000000
1.000000
1.000000
1.000000
1.000000
1.000000
1.000000
1.000000
1.000000
1.000000
1.000000
1.000000
1.000000
1.000000
1.000000
1.000000
1.000000
1.000000
1.000000
1.000000
1.000000
1.000000
1.000000
1.000000
1.000000
1.000000
1.000000
1.000000
1.000000
1.000000
1.000000
1.000000
1.000000
1.000000
1.000000
1.000000
1.000000
1.000000
1.000000
1.000000
1.000000
1.000000
1.000000
1.000000
1.000000
1.000000
1.000000
1.000000
1.000000
1.000000
1.000000
1.000000
1.000000
1.000000
1.000000
1.000000
1.000000
1.000000
1.000000
1.000000
1.000000
1.000000
1.000000
1.000000
1.000000
1.000000
1.000000
1.000000
1.000000
1.000000
1.000000
1.000000
1.000000
1.000000
1.000000
1.000000
1.000000
1.000000
1.000000
1.000000
1.000000
1.000000
1.000000
1.000000
1.000000
1.000000
1.000000
1.000000
1.000000
1.000000
1.000000
1.000000
1.000000
1.000000
1.000000
1.000000
1.000000
1.000000
1.000000
1.000000
1.000000
1.000000
1.000000
1.000000
1.000000
1.000000
1.000000
1.000000
1.000000
1.000000
1.000000
1.000000
1.000000
1.000000
1.000000
1.000000
1.000000
1.000000
1.000000
1.000000
1.000000
1.000000
1.000000
1.000000
1.000000
1.000000
1.000000
1.000000
1.000000
1.000000
1.000000
1.000000
1.000000
1.000000
1.000000
1.000000
1.000000
1.000000
1.000000
1.000000
1.000000
1.000000
1.000000
1.000000
1.000000
1.000000
1.000000
1.000000
1.000000
1.000000
1.000000
1.000000
1.000000
1.000000
1.000000
1.000000
1.000000
1.000000
1.000000
1.000000
1.000000
1.000000
1.000000
1.000000
1.000000
1.000000
1.000000
1.000000
1.000000
1.000000
1.000000
1.000000
1.000000
1.000000
1.000000
1.000000
1.000000
1.000000
1.000000
1.000000
1.000000
1.000000
1.000000
1.000000
1.000000
1.000000
1.000000
1.000000
1.000000
1.000000
1.000000
1.000000
1.000000
1.000000
1.000000
1.000000
1.000000
1.000000
1.000000
1.000000
1.000000
1.000000
1.000000
1.000000
1.000000
1.000000
1.000000
1.000000
1.000000
1.000000
1.000000
1.000000
1.000000
1.000000
1.000000
1.000000
1.000000
1.000000
1.000000
1.000000
1.000000
1.000000
1.000000
1.000000
1.000000
1.000000
1.000000
1.000000
1.000000
1.000000
1.000000
1.000000
1.000000
1.000000
1.000000
1.000000
1.000000
1.000000
1.000000
1.000000
1.000000
1.000000
1.000000
1.000000
1.000000
1.000000
1.000000
1.000000
1.000000
1.000000
1.000000
1.000000
1.000000
1.000000
1.000000
1.000000
1.000000
1.000000
1.000000
1.000000
1.000000
1.000000
1.000000
1.000000
1.000000
1.000000
1.000000
1.000000
1.000000
1.000000
1.000000
1.000000
1.000000
1.000000
1.000000
1.000000
1.000000
1.000000
1.000000
1.000000
1.000000
1.000000
1.000000
1.000000
1.000000
1.000000
1.000000
1.000000
1.000000
1.000000
1.000000
1.000000
1.000000
1.000000
1.000000
1.000000
1.000000
1.000000
1.000000
1.000000
1.000000
1.000000
1.000000
1.000000
1.000000
1.000000
1.000000
1.000000
1.000000
1.000000
1.000000
1.000000
1.000000
1.000000
1.000000
1.000000
1.000000
1.000000
1.000000
1.000000
1.000000
1.000000
1.000000
1.000000
1.000000
1.000000
1.000000
1.000000
1.000000
1.000000
1.000000
1.000000
1.000000
1.000000
1.000000
1.000000
1.000000
1.000000
1.000000
1.000000
1.000000
1.000000
1.000000
1.000000
1.000000
1.000000
1.000000
1.000000
1.000000
1.000000
1.000000
1.000000
1.000000
1.000000
1.000000
1.000000
1.000000
1.000000
1.000000
1.000000
1.000000
1.000000
1.000000
1.000000
1.000000
1.000000
1.000000
1.000000
1.000000
1.000000
1.000000
1.000000
1.000000
1.000000
1.000000
1.000000
1.000000
1.000000
1.000000
1.000000
1.000000
1.000000
1.000000
1.000000
1.000000
1.000000
1.000000
1.000000
1.000000
1.000000
1.000000
1.000000
1.000000
1.000000
1.000000
1.000000
1.000000
1.000000
1.000000
1.000000
1.000000
1.000000
1.000000
1.000000
1.000000
1.000000
1.000000
1.000000
1.000000
1.000000
1.000000
1.000000
1.000000
1.000000
1.000000
1.000000
1.000000
1.000000
1.000000
1.000000
1.000000
1.000000
1.000000
1.000000
1.000000
1.000000
1.000000
1.000000
1.000000
1.000000
1.000000
1.000000
1.000000
1.000000
1.000000
1.000000
1.000000
1.000000
1.000000
1.000000
1.000000
1.000000
1.000000
1.000000
1.000000
1.000000
1.000000
1.000000
1.000000
1.000000
1.000000
1.000000
1.000000
1.000000
1.000000
1.000000
1.000000
1.000000
1.000000
1.000000
1.000000
1.000000
1.000000
1.000000
1.000000
1.000000
1.000000
1.000000
1.000000
1.000000
1.000000
1.000000
1.000000
1.000000
1.000000
1.000000
1.000000
1.000000
1.000000
1.000000
1.000000
1.000000
1.000000
1.000000
1.000000
1.000000
1.000000
1.000000
1.000000
1.000000
1.000000
1.000000
1.000000
1.000000
1.000000
1.000000
1.000000
1.000000
1.000000
1.000000
1.000000
1.000000
1.000000
1.000000
1.000000
1.000000
1.000000
1.000000
1.000000
1.000000
1.000000
1.000000
1.000000
1.000000
1.000000
1.000000
1.000000
1.000000
1.000000
1.000000
1.000000
1.000000
1.000000
1.000000
1.000000
1.000000
1.000000
1.000000
1.000000
1.000000
1.000000
1.000000
1.000000
1.000000
1.000000
1.000000
1.000000
1.000000
1.000000
1.000000
1.000000
1.000000
1.000000
1.000000
1.000000
1.000000
1.000000
1.000000
1.000000
VECTORS v double
9.928789 0.029592 0.000000
9.928998 0.000654 0.000000
9.928999 -0.000000 0.000000
9.928999 -0.000000 0.000000
9.928999 0.000000 0.000000
9.928999 0.000000 0.000000
9.928999 -0.000000 0.000000
9.928999 -0.000000 0.000000
9.928999 0.000000 0.000000
9.928999 -0.000000 0.000000
9.928999 -0.000000 0.000000
9.928999 0.000000 0.000000
9.928999 -0.000000 0.000000
9.928999 -0.000000 0.000000
9.928999 -0.000000 0.000000
9.928999 0.000000 0.000000
9.928999 -0.000000 0.000000
9.928999 -0.000000 0.000000
9.928999 0.000000 0.000000
9.928999 0.000000 0.000000
9.928999 -0.000000 0.000000
9.928999 0.000000 0.000000
9.928999 0.000000 0.000000
9.928998 -0.000654 0.000000
9.928789 -0.029592 0.000000
-9.925147 -0.226729 0.000000
-9.927867 -0.005711 0.000000
-9.927871 0.000001 0.000000
-9.927871 0.000000 0.000000
-9.927871 0.000000 0.000000
-9.927871 0.000000 0.000000
-9.927871 -0.000000 0.000000
-9.927871 -0.000000 0.000000
-9.927871 0.000000 0.000000
-9.927871 -0.000000 0.000000
-9.927871 -0.000000 0.000000
-9.927871 0.000000 0.000000
-9.927871 -0.000000 0.000000
-9.927871 -0.000000 0.000000
-9.927871 -0.000000 0.000000
-9.927871 0.000000 0.000000
-9.927871 -0.000000 0.000000
-9.927871 -0.000000 0.000000
-9.927871 0.000000 0.000000
-9.927871 0.000000 0.000000
-9.927871 -0.000000 0.000000
-9.927871 -0.000000 0.000000
-9.927871 -0.000001 0.000000
-9.927867 0.005711 0.000000
-9.925147 0.226729 0.000000
9.926290 0.218079 0.000000
9.929043 0.005416 0.000000
9.929046 -0.000001 0.000000
9.929046 -0.000000 0.000000
9.929046 0.000000 0.000000
9.929046 0.000000 0.000000
9.929046 -0.000000 0.000000
9.929046 -0.000000 0.000000
9.929046 0.000000 0.000000
9.929046 -0.000000 0.000000
9.929046 0.000000 0.000000
9.929046 0.000000 0.000000
9.929046 -0.000000 0.000000
9.929046 -0.000000 0.000000
9.929046 -0.000000 0.000000
9.929046 0.000000 0.000000
9.929046 -0.000000 0.000000
9.929046 -0.000000 0.000000
9.929046 0.000000 0.000000
9.929046 0.000000 0.000000
9.929046 -0.000000 0.000000
9.929046 0.000000 0.000000
9.929046 0.000001 0.000000
9.929043 -0.005416 0.000000
9.926290 -0.218079 0.000000
-9.924057 -0.053320 0.000000
-9.924229 -0.001433 0.000000
-9.924231 0.000000 0.000000
-9.924231 0.000000 0.000000
-9.924231 0.000000 0.000000
-9.924231 0.000000 0.000000
-9.924231 -0.000000 0.000000
-9.924231 -0.000000 0.000000
-9.924231 0.000000 0.000000
-9.924231 -0.000000 0.000000
-9.924231 -0.000000 0.000000
-9.924231 0.000000 0.000000
-9.924231 -0.000000 0.000000
-9.924231 -0.000000 0.000000
-9.924231 -0.000000 0.000000
-9.924231 0.000000 0.000000
-9.924231 -0.000000 0.000000
-9.924231 -0.000000 0.000000
-9.924231 0.000000 0.000000
-9.924231 0.000000 0.000000
-9.924231 -0.000000 0.000000
-9.924231 -0.000000 0.000000
-9.924231 -0.000000 0.000000
-9.924229 0.001433 0.000000
-9.924057 0.053320 0.000000
9.925040 0.048349 0.000000
9.925142 0.001200 0.000000
9.925144 -0.000000 0.000000
9.925144 -0.000000 0.000000
9.925144 0.000000 0.000000
9.925144 0.000000 0.000000
9.925144 -0.000000 0.000000
9.925144 -0.000000 0.000000
9.925144 0.000000 0.000000
9.925144 -0.000000 0.000000
9.925144 0.000000 0.000000
9.925144 0.000000 0.000000
9.925144 -0.000000 0.000000
9.925144 -0.000000 0.000000
9.925144 -0.000000 0.000000
9.925144 0.000000 0.000000
9.925144 -0.000000 0.000000
9.925144 -0.000000 0.000000
9.925144 0.000000 0.000000
9.925144 0.000000 0.000000
9.925144 -0.000000 0.000000
9.925144 0.000000 0.000000
9.925144 0.000000 0.000000
9.925142 -0.001200 0.000000
9.925040 -0.048349 0.000000
-10.000053 0.002565 0.000000
-10.000059 0.000016 0.000000
-10.000059 -0.000000 0.000000
-10.000059 -0.000000 0.000000
-10.000059 0.000000 0.000000
-10.000059 0.000000 0.000000
-10.000059 -0.000000 0.000000
-10.000059 -0.000000 0.000000
-10.000059 0.000000 0.000000
-10.000059 -0.000000 0.000000
-10.000059 -0.000000 0.000000
-10.000059 0.000000 0.000000
-10.000059 -0.000000 0.000000
-10.000059 -0.000000 0.000000
-10.000059 -0.000000 0.000000
-10.000059 0.000000 0.000000
-10.000059 -0.000000 0.000000
-10.000059 -0.000000 0.000000
-10.000059 0.000000 0.000000
-10.000059 0.000000 0.000000
-10.000059 -0.000000 0.000000
-10.000059 0.000000 0.000000
-10.000059 0.000000 0.000000
-10.000059 -0.000016 0.000000
-10.000053 -0.002565 0.000000
-10.000000 0.002561 0.000000
-10.000001 0.000016 0.000000
-10.000001 -0.000000 0.000000
-10.000001 -0.000000 0.000000
-10.000001 0.000000 0.000000
-10.000001 0.000000 0.000000
-10.000001 -0.000000 0.000000
-10.000001 -0.000000 0.000000
-10.000001 0.000000 0.000000
-10.000001 -0.000000 0.000000
-10.000001 -0.000000 0.000000
-10.000001 0.000000 0.000000
-10.000001 -0.000000 0.000000
-10.000001 -0.000000 0.000000
-10.000001 -0.000000 0.000000
-10.000001 0.000000 0.000000
-10.000001 -0.000000 0.000000
-10.000001 -0.000000 0.000000
-10.000001 0.000000 0.000000
-10.000001 0.000000 0.000000
-10.000001 -0.000000 0.000000
-10.000001 0.000000 0.000000
-10.000001 0.000000 0.000000
-10.000001 -0.000016 0.000000
-10.000000 -0.002561 0.000000
-10.000000 0.002560 0.000000
-10.000000 0.000016 0.000000
-10.000000 -0.000000 0.000000
-10.000000 -0.000000 0.000000
-10.000000 0.000000 0.000000
-10.000000 0.000000 0.000000
-10.000000 -0.000000 0.000000
-10.000000 -0.000000 0.000000
-10.000000 0.000000 0.000000
-10.000000 -0.000000 0.000000
-10.000000 -0.000000 0.000000
-10.000000 0.000000 0.000000
-10.000000 -0.000000 0.000000
-10.000000 -0.000000 0.000000
-10.000000 -0.000000 0.000000
-10.000000 0.000000 0.000000
-10.000000 -0.000000 0.000000
-10.000000 -0.000000 0.000000
-10.000000 0.000000 0.000000
-10.000000 0.000000 0.000000
-10.000000 -0.000000 0.000000
-10.000000 0.000000 0.000000
-10.000000 0.000000 0.000000
-10.000000 -0.000016 0.000000
-10.000000 -0.002560 0.000000
-10.000000 0.002560 0.000000
-10.000000 0.000016 0.000000
-10.000000 -0.000000 0.000000
-10.000000 -0.000000 0.000000
-10.000000 0.000000 0.000000
-10.000000 0.000000 0.000000
-10.000000 -0.000000 0.000000
-10.000000 -0.000000 0.000000
-10.000000 0.000000 0.000000
-10.000000 -0.000000 0.000000
-10.000000 0.000000 0.000000
-10.000000 0.000000 0.000000
-10.000000 -0.000000 0.000000
-10.000000 -0.000000 0.000000
-10.000000 -0.000000 0.000000
-10.000000 0.000000 0.000000
-10.000000 -0.000000 0.000000
-10.000000 -0.000000 0.000000
-10.000000 0.000000 0.000000
-10.000000 0.000000 0.000000
-10.000000 -0.000000 0.000000
-10.000000 0.000000 0.000000
-10.000000 0.000000 0.000000
-10.000000 -0.000016 0.000000
-10.000000 -0.002560 0.000000
-10.000000 0.002560 0.000000
-10.000000 0.000016 0.000000
-10.000000 -0.000000 0.000000
-10.000000 -0.000000 0.000000
-10.000000 0.000000 0.000000
-10.000000 0.000000 0.000000
-10.000000 -0.000000 0.000000
-10.000000 -0.000000 0.000000
-10.000000 0.000000 0.000000
-10.000000 -0.000000 0.000000
-10.000000 -0.000000 0.000000
-10.000000 0.000000 0.000000
-10.000000 -0.000000 0.000000
-10.000000 -0.000000 0.000000
-10.000000 -0.000000 0.000000
-10.000000 0.000000 0.000000
-10.000000 -0.000000 0.000000
-10.000000 -0.000000 0.000000
-10.000000 0.000000 0.000000
-10.000000 0.000000 0.000000
-10.000000 -0.000000 0.000000
-10.000000 0.000000 0.000000
-10.000000 0.000000 0.000000
-10.000000 -0.000016 0.000000
-10.000000 -0.002560 0.000000
-10.000000 0.002560 0.000000
-10.000000 0.000016 0.000000
-10.000000 -0.000000 0.000000
-10.000000 -0.000000 0.000000
-10.000000 0.000000 0.000000
-10.000000 0.000000 0.000000
-10.000000 -0.000000 0.000000
-10.000000 -0.000000 0.000000
-10.000000 0.000000 0.000000
-10.000000 -0.000000 0.000000
-10.000000 -0.000000 0.000000
-10.000000 0.000000 0.000000
-10.000000 -0.000000 0.000000
-10.000000 -0.000000 0.000000
-10.000000 -0.000000 0.000000
-10.000000 0.000000 0.000000
-10.000000 -0.000000 0.000000
-10.000000 -0.000000 0.000000
-10.000000 0.000000 0.000000
-10.000000 0.000000 0.000000
-10.000000 -0.000000 0.000000
-10.000000 0.000000 0.000000
-10.000000 0.000000 0.000000
-10.000000 -0.000016 0.000000
-10.000000 -0.002560 0.000000
-10.000000 0.002560 0.000000
-10.000000 0.000016 0.000000
-10.000000 -0.000000 0.000000
-10.000000 -0.000000 0.000000
-10.000000 0.000000 0.000000
-10.000000 0.000000 0.000000
-10.000000 -0.000000 0.000000
-10.000000 -0.000000 0.000000
-10.000000 0.000000 0.000000
-10.000000 -0.000000 0.000000
-10.000000 0.000000 0.000000
-10.000000 0.000000 0.000000
-10.000000 -0.000000 0.000000
-10.000000 -0.000000 0.000000
-10.000000 -0.000000 0.000000
-10.000000 0.000000 0.000000
-10.000000 -0.000000 0.000000
-10.000000 -0.000000 0.000000
-10.000000 0.000000 0.000000
-10.000000 0.000000 0.000000
-10.000000 -0.000000 0.000000
-10.000000 0.000000 0.000000
-10.000000 0.000000 0.000000
-10.000000 -0.000016 0.000000
-10.000000 -0.002560 0.000000