# vtk DataFile Version 4.0
hesp visualization file
ASCII
DATASET UNSTRUCTURED_GRID
POINTS 1250 double
34.095471 -1.052527 4.000000
31.051636 -1.193290 4.000000
33.638377 6.664205 4.000000
33.129334 8.216225 4.000000
29.705167 4.717185 4.000000
29.300994 14.601508 4.000000
32.238028 9.228827 4.000000
32.862311 10.591048 4.000000
32.364733 15.588976 4.000000
34.450407 13.698179 4.000000
33.002943 11.593143 4.000000
31.839934 15.331356 4.000000
32.075354 16.380645 4.000000
30.017115 16.827911 4.000000
31.591153 18.103150 4.000000
29.293225 16.438667 4.000000
31.201232 19.648088 4.000000
33.372346 16.222596 4.000000
27.981980 22.778360 4.000000
29.268644 17.244030 4.000000
34.515874 22.909231 4.000000
30.989610 30.835723 4.000000
34.602609 25.470118 4.000000
31.925305 30.788151 4.000000
31.029525 28.911908 4.000000
31.863849 -16.880132 4.000000
32.269471 1.026820 4.000000
34.576489 -7.031768 4.000000
31.899236 2.230523 4.000000
28.148677 8.621906 4.000000
30.346743 3.933157 4.000000
32.496929 7.650793 4.000000
31.663945 12.693530 4.000000
33.006774 12.966711 4.000000
32.230237 12.962601 4.000000
30.232663 12.264987 4.000000
28.190000 11.962750 4.000000
33.726689 14.600873 4.000000
31.274836 17.430712 4.000000
34.444985 15.484956 4.000000
31.036074 14.109939 4.000000
32.126447 16.827863 4.000000
31.285973 16.455349 4.000000
32.732493 20.825260 4.000000
31.359291 24.036250 4.000000
31.784796 24.458002 4.000000
32.504256 20.746587 4.000000
34.593701 36.205193 4.000000
31.501922 28.663921 4.000000
31.863849 46.064145 4.000000
31.840732 -6.522751 4.000000
35.032517 1.593086 4.000000
32.693311 1.501635 4.000000
28.869814 7.988344 4.000000
36.094130 0.816097 4.000000
31.376623 11.280340 4.000000
31.697132 8.524513 4.000000
30.696852 5.568136 4.000000
29.767170 14.451396 4.000000
32.524263 12.152601 4.000000
31.510442 11.457448 4.000000
27.215961 16.112823 4.000000
36.527720 13.921795 4.000000
35.238453 13.977770 4.000000
33.692055 13.273143 4.000000
33.473388 15.558289 4.000000
30.234254 20.376366 4.000000
30.196180 20.663947 4.000000
31.306159 19.071357 4.000000
35.216207 15.254547 4.000000
31.270364 25.855072 4.000000
31.982046 18.403508 4.000000
32.291756 21.831761 4.000000
33.055753 29.653940 4.000000
31.777746 35.670889 4.000000
31.866723 -5.231116 4.000000
35.435028 -10.843252 4.000000
31.928299 4.669264 4.000000
37.592133 2.570226 4.000000
30.475190 2.743861 4.000000
31.890829 2.554265 4.000000
30.030901 7.576467 4.000000
29.992241 12.129528 4.000000
32.382260 8.575377 4.000000
34.565278 3.735105 4.000000
36.123529 16.219863 4.000000
33.287286 14.847138 4.000000
35.676939 10.396828 4.000000
30.672240 16.128413 4.000000
35.475000 15.671035 4.000000
29.782306 17.610458 4.000000
35.439749 17.956825 4.000000
32.252869 12.439477 4.000000
29.245104 23.708222 4.000000
31.122098 18.244881 4.000000
36.516055 27.707994 4.000000
36.321492 29.972205 4.000000
30.408132 28.084348 4.000000
35.435034 40.027264 4.000000
32.555552 33.905627 4.000000
31.657021 1.808564 4.000000
32.237460 2.268964 4.000000
31.050839 -9.602680 4.000000
31.522010 5.283504 4.000000
30.873102 7.940252 4.000000
30.799419 12.000808 4.000000
33.486529 7.556086 4.000000
34.950771 10.659122 4.000000
33.450026 8.729268 4.000000
33.719161 11.460883 4.000000
31.103614 14.736339 4.000000
33.020741 9.096999 4.000000
36.640435 18.037111 4.000000
33.053034 15.917845 4.000000
27.462230 16.412258 4.000000
36.243696 13.598197 4.000000
30.493240 19.968205 4.000000
31.878499 18.083856 4.000000
33.126305 24.001573 4.000000
32.010473 21.472770 4.000000
32.070362 23.495964 4.000000
34.515549 23.417187 4.000000
34.891384 35.087786 4.000000
33.388950 27.620280 4.000000
29.973826 29.314352 4.000000
30.291486 -5.977381 4.000000
31.094812 -9.929303 4.000000
38.296527 6.036645 4.000000
28.434373 5.305842 4.000000
33.052027 6.080103 4.000000
31.024337 6.915582 4.000000
30.378642 8.959276 4.000000
32.546325 13.212113 4.000000
32.122765 11.587845 4.000000
32.005438 7.941546 4.000000
29.175048 11.669339 4.000000
34.519579 12.064431 4.000000
32.291987 14.055515 4.000000
34.775802 15.014438 4.000000
32.434305 10.380424 4.000000
34.217928 15.626890 4.000000
34.682007 17.140863 4.000000
33.457903 24.569804 4.000000
30.226624 19.141503 4.000000
28.781050 25.109649 4.000000
30.700887 19.040461 4.000000
29.593157 17.284562 4.000000
41.722832 21.502033 4.000000
31.095323 39.115361 4.000000
30.291512 35.161401 4.000000
31.065242 -1.865425 4.000000
36.422020 -5.558250 4.000000
32.271287 -2.602323 4.000000
32.376732 2.604294 4.000000
28.023303 9.893552 4.000000
31.294483 5.963754 4.000000
33.706021 7.778951 4.000000
37.219916 13.208212 4.000000
28.971802 5.920165 4.000000
31.045532 11.013861 4.000000
30.799459 9.634713 4.000000
36.645597 15.925090 4.000000
33.850218 14.366988 4.000000
29.717141 16.210067 4.000000
33.759356 24.184945 4.000000
32.225990 17.528985 4.000000
32.065806 24.599017 4.000000
34.730940 22.470484 4.000000
30.567697 21.154189 4.000000
30.586683 21.751953 4.000000
33.008274 28.962769 4.000000
33.194572 17.862412 4.000000
31.018593 28.306360 4.000000
32.162991 29.652772 4.000000
32.043945 31.599778 4.000000
41.227925 -11.513178 4.000000
32.707739 -3.506121 4.000000
36.938939 0.036688 4.000000
31.699309 5.828857 4.000000
30.403723 7.524692 4.000000
32.755851 3.898051 4.000000
35.355101 9.311583 4.000000
37.413388 10.154874 4.000000
30.716461 11.260821 4.000000
34.068359 12.862976 4.000000
32.358695 13.456214 4.000000
33.883878 12.597955 4.000000
33.717693 17.575773 4.000000
37.141535 19.548108 4.000000
35.253271 17.485071 4.000000
34.241089 16.694942 4.000000
35.902735 18.769594 4.000000
35.228458 22.337534 4.000000
34.713986 18.965255 4.000000
30.374122 21.004496 4.000000
32.568127 19.177865 4.000000
33.086086 19.636693 4.000000
35.498570 30.782646 4.000000
32.871632 18.259040 4.000000
41.227925 40.697191 4.000000
30.466267 0.133339 4.000000
32.963806 1.181053 4.000000
35.486809 -6.148987 4.000000
37.458492 5.207229 4.000000
33.540918 6.909220 4.000000
35.127642 5.523604 4.000000
29.575510 12.673934 4.000000
36.526289 11.243296 4.000000
37.148632 9.585892 4.000000
35.285738 6.795647 4.000000
35.747756 8.374386 4.000000
37.444678 15.632753 4.000000
39.439522 15.693765 4.000000
34.078722 16.076112 4.000000
31.599228 18.408927 4.000000
36.133709 17.947558 4.000000
33.938984 17.726680 4.000000
36.888295 15.302998 4.000000
30.542686 17.228023 4.000000
31.506605 20.696512 4.000000
34.864211 20.066085 4.000000
34.635401 24.603572 4.000000
37.714583 33.298043 4.000000
27.121811 29.113428 4.000000
33.321859 32.225717 4.000000
32.451966 0.423435 4.000000
31.840411 -7.507320 4.000000
31.973617 -0.891105 4.000000
34.822574 2.868053 4.000000
35.111204 9.918992 4.000000
33.364953 2.564460 4.000000
38.030210 7.736832 4.000000
38.389317 12.084585 4.000000
34.738408 13.820463 4.000000
37.797470 11.202767 4.000000
32.737979 10.867903 4.000000
37.828481 15.006590 4.000000
33.947606 13.940330 4.000000
38.079488 19.306702 4.000000
36.182943 16.467287 4.000000
36.592046 14.622529 4.000000
36.326788 16.863578 4.000000
31.989536 20.618568 4.000000
33.992395 23.212645 4.000000
36.644932 22.125293 4.000000
35.155150 24.643352 4.000000
32.273615 26.413221 4.000000
32.162394 30.681010 4.000000
31.841056 36.691445 4.000000
32.442411 28.177644 4.000000
31.745199 -3.499629 4.000000
34.884202 -1.999311 4.000000
35.219007 4.346218 4.000000
33.488080 2.179103 4.000000
35.265594 5.882038 4.000000
40.446482 8.220812 4.000000
30.783145 7.355693 4.000000
35.647942 12.500946 4.000000
34.822724 9.932397 4.000000
39.578900 15.278913 4.000000
34.452154 12.764516 4.000000
36.199880 7.686513 4.000000
36.419163 12.720019 4.000000
35.862315 15.082709 4.000000
36.785888 17.399951 4.000000
38.087532 15.010584 4.000000
34.311050 17.159844 4.000000
35.070012 14.366502 4.000000
30.898872 21.004303 4.000000
35.642866 20.138604 4.000000
37.054626 21.668259 4.000000
29.753198 30.148591 4.000000
37.100297 26.394756 4.000000
32.945504 25.649783 4.000000
31.531276 30.584232 4.000000
31.012913 -5.458819 4.000000
33.494636 -5.436579 4.000000
35.749980 12.200374 4.000000
34.046787 3.292649 4.000000
37.331946 11.003855 4.000000
34.774733 8.568955 4.000000
36.406196 9.264355 4.000000
33.406407 8.430291 4.000000
35.691304 11.630954 4.000000
36.864826 14.378170 4.000000
38.020958 13.056106 4.000000
37.749676 12.605689 4.000000
35.935801 19.704602 4.000000
34.719305 17.627428 4.000000
37.779842 16.722053 4.000000
33.587254 16.816031 4.000000
38.808740 15.760810 4.000000
38.968519 21.519692 4.000000
36.525712 20.987390 4.000000
35.419767 23.183171 4.000000
36.841413 28.103663 4.000000
31.273829 28.028071 4.000000
40.584212 19.228924 4.000000
33.600539 34.235979 4.000000
30.898659 34.493159 4.000000
31.537111 -1.346879 4.000000
30.432197 -4.388487 4.000000
39.891469 1.663952 4.000000
38.303731 6.572339 4.000000
37.248261 4.793036 4.000000
35.943683 7.388222 4.000000
34.990282 7.349359 4.000000
32.994219 7.626479 4.000000
34.877422 12.236871 4.000000
39.184061 12.283292 4.000000
38.678529 9.352100 4.000000
36.482304 12.258568 4.000000
39.743136 17.721042 4.000000
37.895899 15.335779 4.000000
37.790906 21.453353 4.000000
35.791625 19.208562 4.000000
34.380769 18.688938 4.000000
36.746272 19.969613 4.000000
37.176346 18.531028 4.000000
35.923330 24.120987 4.000000
39.276831 21.553868 4.000000
34.166493 19.655372 4.000000
35.888717 34.440769 4.000000
30.032810 32.757657 4.000000
32.924604 33.606435 4.000000
33.050468 -1.630283 4.000000
33.821471 -0.595834 4.000000
32.503718 -3.792149 4.000000
35.537538 1.491142 4.000000
34.866295 4.178207 4.000000
39.276857 5.380336 4.000000
38.580030 6.238303 4.000000
41.886115 8.302928 4.000000
35.214164 11.320215 4.000000
38.162031 11.564592 4.000000
34.989681 11.888422 4.000000
39.268020 15.053726 4.000000
36.224206 15.352806 4.000000
38.222652 15.419840 4.000000
41.361240 15.115530 4.000000
34.450185 20.942282 4.000000
37.172460 16.914032 4.000000
35.186693 18.554560 4.000000
35.213730 21.545828 4.000000
[...]
POINT_DATA 1250
SCALARS m double
LOOKUP_TABLE default
1.000000
1.000000
1.000000
1.000000
1.000000
1.000000
1.000000
1.000000
1.000000
1.000000
1.000000
1.000000
1.000000
1.000000
1.000000
1.000000
1.000000
1.000000
1.000000
1.000000
1.000000
1.000000
1.000000
1.000000
1.000000
1.000000
1.000000
1.000000
1.000000
1.000000
1.000000
1.000000
1.000000
1.000000
1.000000
1.000000
1.000000
1.000000
1.000000
1.000000
1.000000
1.000000
1.000000
1.000000
1.000000
1.000000
1.000000
1.000000
1.000000
1.000000
1.000000
1.000000
1.000000
1.000000
1.000000
1.000000
1.000000
1.000000
1.000000
1.000000
1.000000
1.000000
1.000000
1.000000
1.000000
1.000000
1.000000
1.000000
1.000000
1.000000
1.000000
1.000000
1.000000
1.000000
1.000000
1.000000
1.000000
1.000000
1.000000
1.000000
1.000000
1.000000
1.000000
1.000000
1.000000
1.000000
1.000000
1.000000
1.000000
1.000000
1.000000
1.000000
1.000000
1.000000
1.000000
1.000000
1.000000
1.000000
1.000000
1.000000
1.000000
1.000000
1.000000
1.000000
1.000000
1.000000
1.000000
1.000000
1.000000
1.000000
1.000000
1.000000
1.000000
1.000000
1.000000
1.000000
1.000000
1.000000
1.000000
1.000000
1.000000
1.000000
1.000000
1.000000
1.000000
1.000000
1.000000
1.000000
1.000000
1.000000
1.000000
1.000000
1.000000
1.000000
1.000000
1.000000
1.000000
1.000000
1.000000
1.000000
1.000000
1.000000
1.000000
1.000000
1.000000
1.000000
1.000000
1.000000
1.000000
1.000000
1.000000
1.000000
1.000000
1.000000
1.000000
1.000000
1.000000
1.000000
1.000000
1.000000
1.000000
1.000000
1.000000
1.000000
1.000000
1.000000
1.000000
1.000000
1.000000
1.000000
1.000000
1.000000
1.000000
1.000000
1.000000
1.000000
1.000000
1.000000
1.000000
1.000000
1.000000
1.000000
1.000000
1.000000
1.000000
1.000000
1.000000
1.000000
1.000000
1.000000
1.000000
1.000000
1.000000
1.000000
1.000000
1.000000
1.000000
1.000000
1.000000
1.000000
1.000000
1.000000
1.000000
1.000000
1.000000
1.000000
1.000000
1.000000
1.000000
1.000000
1.000000
1.000000
1.000000
1.000000
1.000000
1.000000
1.000000
1.000000
1.000000
1.000000
1.000000
1.000000
1.000000
1.000000
1.000000
1.000000
1.000000
1.000000
1.000000
1.000000
1.000000
1.000000
1.000000
1.000000
1.000000
1.000000
1.000000
1.000000
1.000000
1.000000
1.000000
1.000000
1.000000
1.000000
1.000000
1.000000
1.000000
1.000000
1.000000
1.000000
1.000000
1.000000
1.000000
1.000000
1.000000
1.000000
1.000000
1.000000
1.000000
1.000000
1.000000
1.000000
1.000000
1.000000
1.000000
1.000000
1.000000
1.000000
1.000000
1.000000
1.000000
1.000000
1.000000
1.000000
1.000000
1.000000
1.000000
1.000000
1.000000
1.000000
1.000000
1.000000
1.000000
1.000000
1.000000
1.000000
1.000000
1.000000
1.000000
1.000000
1.000000
1.000000
1.000000
1.000000
1.000000
1.000000
1.000000
1.000000
1.000000
1.000000
1.000000
1.000000
1.000000
1.000000
1.000000
1.000000
1.000000
1.000000
1.000000
1.000000
1.000000
1.000000
1.000000
1.000000
1.000000
1.000000
1.000000
1.000000
1.000000
1.000000
1.000000
1.000000
1.000000
1.000000
1.000000
1.000000
1.000000
1.000000
1.000000
1.000000
1.000000
1.000000
1.000000
1.000000
1.000000
1.000000
1.000000
1.000000
1.000000
1.000000
1.000000
1.000000
1.000000
1.000000
1.000000
1.000000
1.000000
1.000000
1.000000
1.000000
1.000000
1.000000
1.000000
1.000000
1.000000
1.000000
1.000000
1.000000
1.000000
1.000000
1.000000
1.000000
1.000000
1.000000
1.000000
1.000000
1.000000
1.000000
1.000000
1.000000
1.000000
1.000000
1.000000
1.000000
1.000000
1.000000
1.000000
1.000000
1.000000
1.000000
1.000000
1.000000
1.000000
1.000000
1.000000
1.000000
1.000000
1.000000
1.000000
1.000000
1.000000
1.000000
1.000000
1.000000
1.000000
1.000000
1.000000
1.000000
1.000000
1.000000
1.000000
1.000000
1.000000
1.000000
1.000000
1.000000
1.000000
1.000000
1.000000
1.000000
1.000000
1.000000
1.000000
1.000000
1.000000
1.000000
1.000000
1.000000
1.000000
1.000000
1.000000
1.000000
1.000000
1.000000
1.000000
1.000000
1.000000
1.000000
1.000000
1.000000
1.000000
1.000000
1.000000
1.000000
1.000000
1.000000
1.000000
1.000000
1.000000
1.000000
1.000000
1.000000
1.000000
1.000000
1.000000
1.000000
1.000000
1.000000
1.000000
1.000000
1.000000
1.000000
1.000000
1.000000
1.000000
1.000000
1.000000
1.000000
1.000000
1.000000
1.000000
1.000000
1.000000
1.000000
1.000000
1.000000
1.000000
1.000000
1.000000
1.000000
1.000000
1.000000
1.000000
1.000000
1.000000
1.000000
1.000000
1.000000
1.000000
1.000000
1.000000
1.000000
1.000000
1.000000
1.000000
1.000000
1.000000
1.000000
1.000000
1.000000
1.000000
1.000000
1.000000
1.000000
1.000000
1.000000
1.000000
1.000000
1.000000
1.000000
1.000000
1.000000
1.000000
1.000000
1.000000
1.000000
1.000000
1.000000
1.000000
1.000000
1.000000
1.000000
1.000000
1.000000
1.000000
1.000000
1.000000
1.000000
1.000000
1.000000
1.000000
1.000000
1.000000
1.000000
1.000000
1.000000
1.000000
1.000000
1.000000
1.000000
1.000000
1.000000
1.000000
1.000000
1.000000
1.000000
1.000000
1.000000
1.000000
1.000000
1.000000
1.000000
1.000000
1.000000
1.000000
1.000000
1.000000
1.000000
1.000000
1.000000
1.000000
1.000000
1.000000
1.000000
1.000000
1.000000
1.000000
1.000000
1.000000
1.000000
1.000000
1.000000
1.000000
1.000000
1.000000
1.000000
1.000000
1.000000
1.000000
1.000000
1.000000
1.000000
1.000000
1.000000
1.000000
1.000000
1.000000
1.000000
1.000000
1.000000
1.000000
1.000000
1.000000
1.000000
1.000000
1.000000
1.000000
1.000000
1.000000
1.000000
1.000000
1.000000
1.000000
1.000000
1.000000
1.000000
1.000000
1.000000
1.000000
1.000000
1.000000
1.000000
1.000000
1.000000
1.000000
1.000000
1.000000
1.000000
1.000000
1.000000
1.000000
1.000000
1.000000
1.000000
1.000000
1.000000
1.000000
1.000000
1.000000
1.000000
1.000000
1.000000
1.000000
1.000000
1.000000
1.000000
1.000000
1.000000
1.000000
1.000000
1.000000
1.000000
1.000000
1.000000
1.000000
1.000000
1.000000
1.000000
1.000000
1.000000
1.000000
1.000000
1.000000
1.000000
1.000000
1.000000
1.000000
1.000000
1.000000
1.000000
1.000000
1.000000
1.000000
1.000000
1.000000
1.000000
1.000000
1.000000
1.000000
1.000000
1.000000
1.000000
1.000000
1.000000
1.000000
1.000000
1.000000
1.000000
1.000000
1.000000
1.000000
1.000000
1.000000
1.000000
1.000000
1.000000
1.000000
1.000000
1.000000
1.000000
1.000000
1.000000
1.000000
1.000000
1.000000
1.000000
1.000000
1.000000
1.000000
1.000000
1.000000
1.000000
1.000000
1.000000
1.000000
1.000000
1.000000
1.000000
1.000000
1.000000
1.000000
1.000000
1.000000
1.000000
1.000000
1.000000
1.000000
1.000000
1.000000
1.000000
1.000000
1.000000
1.000000
1.000000
1.000000
1.000000
1.000000
1.000000
1.000000
1.000000
1.000000
1.000000
1.000000
1.000000
1.000000
1.000000
1.000000
1.000000
1.000000
1.000000
1.000000
1.000000
1.000000
1.000000
1.000000
1.000000
1.000000
1.000000
1.000000
1.000000
1.000000
1.000000
1.000000
1.000000
1.000000
1.000000
1.000000
1.000000
1.000000
1.000000
1.000000
1.000000
1.000000
1.000000
1.000000
1.000000
1.000000
1.000000
1.000000
1.000000
1.000000
1.000000
1.000000
1.000000
1.000000
1.000000
1.000000
1.000000
1.000000
1.000000
1.000000
1.000000
1.000000
1.000000
1.000000
1.000000
1.000000
1.000000
1.000000
1.000000
1.000000
1.000000
1.000000
1.000000
1.000000
1.000000
1.000000
1.000000
1.000000
1.000000
1.000000
1.000000
1.000000
1.000000
1.000000
1.000000
1.000000
1.000000
1.000000
1.000000
1.000000
1.000000
1.000000
1.000000
1.000000
1.000000
1.000000
1.000000
1.000000
1.000000
1.000000
1.000000
1.000000
1.000000
1.000000
1.000000
1.000000
1.000000
1.000000
1.000000
1.000000
1.000000
1.000000
1.000000
1.000000
1.000000
1.000000
1.000000
1.000000
1.000000
1.000000
1.000000
1.000000
1.000000
1.000000
1.000000
1.000000
1.000000
1.000000
1.000000
1.000000
1.000000
1.000000
1.000000
1.000000
1.000000
1.000000
1.000000
1.000000
1.000000
1.000000
1.000000
1.000000
1.000000
1.000000
1.000000
1.000000
1.000000
1.000000
1.000000
1.000000
1.000000
1.000000
1.000000
1.000000
1.000000
1.000000
1.000000
1.000000
1.000000
1.000000
1.000000
1.000000
1.000000
1.000000
1.000000
1.000000
1.000000
1.000000
1.000000
1.000000
1.000000
1.000000
1.000000
1.000000
1.000000
1.000000
1.000000
1.000000
1.000000
1.000000
1.000000
1.000000
1.000000
1.000000
1.000000
1.000000
1.000000
1.000000
1.000000
1.000000
1.000000
1.000000
1.000000
1.000000
1.000000
1.000000
1.000000
1.000000
1.000000
1.000000
1.000000
1.000000
1.000000
1.000000
1.000000
1.000000
1.000000
1.000000
1.000000
1.000000
1.000000
1.000000
1.000000
1.000000
1.000000
1.000000
1.000000
1.000000
1.000000
1.000000
1.000000
1.000000
1.000000
1.000000
1.000000
1.000000
1.000000
1.000000
1.000000
1.000000
1.000000
1.000000
1.000000
1.000000
1.000000
1.000000
1.000000
1.000000
1.000000
1.000000
1.000000
1.000000
1.000000
1.000000
1.000000
1.000000
1.000000
1.000000
1.000000
1.000000
1.000000
1.000000
1.000000
1.000000
1.000000
1.000000
1.000000
1.000000
1.000000
1.000000
1.000000
1.000000
1.000000
1.000000
1.000000
1.000000
1.000000
1.000000
1.000000
1.000000
1.000000
1.000000
1.000000
1.000000
1.000000
1.000000
1.000000
1.000000
1.000000
1.000000
1.000000
1.000000
1.000000
1.000000
1.000000
1.000000
1.000000
1.000000
1.000000
1.000000
1.000000
1.000000
1.000000
1.000000
1.000000
1.000000
1.000000
1.000000
1.000000
1.000000
1.000000
1.000000
1.000000
1.000000
1.000000
1.000000
1.000000
1.000000
1.000000
1.000000
1.000000
1.000000
1.000000
1.000000
1.000000
1.000000
1.000000
1.000000
1.000000
1.000000
1.000000
1.000000
1.000000
1.000000
1.000000
1.000000
1.000000
1.000000
1.000000
1.000000
1.000000
1.000000
1.000000
1.000000
1.000000
1.000000
1.000000
1.000000
1.000000
1.000000
1.000000
1.000000
1.000000
1.000000
1.000000
1.000000
1.000000
1.000000
1.000000
1.000000
1.000000
1.000000
1.000000
1.000000
1.000000
1.000000
1.000000
1.000000
1.000000
1.000000
1.000000
1.000000
1.000000
1.000000
1.000000
1.000000
1.000000
1.000000
1.000000
1.000000
1.000000
1.000000
1.000000
1.000000
1.000000
1.000000
1.000000
1.000000
1.000000
1.000000
1.000000
1.000000
1.000000
1.000000
1.000000
1.000000
1.000000
1.000000
1.000000
1.000000
1.000000
1.000000
1.000000
1.000000
1.000000
1.000000
1.000000
1.000000
1.000000
1.000000
1.000000
1.000000
1.000000
1.000000
1.000000
1.000000
1.000000
1.000000
1.000000
1.000000
1.000000
1.000000
1.000000
1.000000
1.000000
1.000000
1.000000
1.000000
1.000000
1.000000
1.000000
1.000000
1.000000
1.000000
1.000000
1.000000
1.000000
1.000000
1.000000
1.000000
1.000000
1.000000
1.000000
1.000000
1.000000
1.000000
1.000000
1.000000
1.000000
1.000000
1.000000
1.000000
1.000000
1.000000
1.000000
1.000000
1.000000
1.000000
1.000000
1.000000
1.000000
1.000000
1.000000
1.000000
1.000000
1.000000
1.000000
1.000000
1.000000
1.000000
1.000000
1.000000
1.000000
1.000000
1.000000
1.000000
1.000000
1.000000
1.000000
1.000000
1.000000
1.000000
1.000000
1.000000
1.000000
1.000000
1.000000
1.000000
1.000000
1.000000
1.000000
1.000000
1.000000
1.000000
1.000000
1.000000
1.000000
1.000000
1.000000
1.000000
1.000000
1.000000
1.000000
1.000000
1.000000
1.000000
1.000000
1.000000
1.000000
1.000000
1.000000
1.000000
1.000000
1.000000
1.000000
1.000000
1.000000
1.000000
1.000000
1.000000
1.000000
1.000000
1.000000
1.000000
1.000000
1.000000
1.000000
1.000000
1.000000
1.000000
1.000000
1.000000
1.000000
1.000000
1.000000
1.000000
1.000000
1.000000
1.000000
1.000000
1.000000
1.000000
1.000000
1.000000
1.000000
1.000000
1.000000
1.000000
1.000000
VECTORS v double
-8.214324 -13.829790 0.000000
2.987325 -3.599312 0.000000
-0.400193 0.396269 0.000000
3.114520 -1.268761 0.000000
-11.667477 -0.657134 0.000000
-6.283871 3.704786 0.000000
-8.115083 -15.002862 0.000000
4.835374 -7.950367 0.000000
12.282901 -1.650294 0.000000
-1.998588 -1.533841 0.000000
5.686477 -6.019970 0.000000
1.510366 1.006916 0.000000
-0.524617 -4.970371 0.000000
-9.028565 -12.149297 0.000000
5.604476 0.933244 0.000000
-4.736697 3.223077 0.000000
12.926985 1.414258 0.000000
4.169244 -5.432848 0.000000
-5.877030 3.755776 0.000000
-9.614513 8.462968 0.000000
8.842803 15.649522 0.000000
-7.975855 5.936637 0.000000
4.874959 -2.432529 0.000000
0.797491 7.980943 0.000000
-1.445998 7.895191 0.000000
2.630965 -13.726701 0.000000
-7.916442 3.308028 0.000000
5.360049 -9.594787 0.000000
0.829280 -1.482464 0.000000
-22.323088 3.770755 0.000000
2.100690 -6.742315 0.000000
8.134034 -0.799938 0.000000
3.886504 -5.997914 0.000000
5.058400 -6.304101 0.000000
-6.670450 -10.409165 0.000000
2.584551 -6.673011 0.000000
-15.231484 -3.200649 0.000000
12.063981 -3.973469 0.000000
-2.673264 -7.839050 0.000000
9.029091 -3.771552 0.000000
-1.050575 2.555094 0.000000
-0.598337 16.406305 0.000000
-8.437147 3.261402 0.000000
-6.336807 -4.250611 0.000000
1.287868 0.125726 0.000000
-4.199500 6.970689 0.000000
1.558241 -10.940972 0.000000
5.385503 9.584868 0.000000
-0.224810 7.838647 0.000000
2.630965 13.726701 0.000000
-0.081724 -9.566090 0.000000
-9.724918 4.490314 0.000000
-5.198308 -2.264603 0.000000
-2.295691 3.527769 0.000000
-8.912464 -19.684885 0.000000
-1.181972 10.147634 0.000000
-3.004759 -0.907858 0.000000
0.062731 7.475832 0.000000
0.997064 7.067553 0.000000
3.550479 -11.297797 0.000000
-12.695237 3.354670 0.000000
-15.089510 0.187181 0.000000
4.253187 6.272462 0.000000
14.698358 3.203394 0.000000
5.272670 4.111272 0.000000
3.921872 8.346576 0.000000
-0.019650 4.217988 0.000000
-7.183068 1.970867 0.000000
-9.987068 5.196053 0.000000
8.696339 -6.699698 0.000000
-5.786528 -3.258186 0.000000
-17.719787 12.503599 0.000000
2.416813 -3.898058 0.000000
-3.740301 9.853994 0.000000
-0.277501 9.465122 0.000000
3.154683 -10.534094 0.000000
6.835050 -10.617898 0.000000
-0.282823 -0.625400 0.000000
2.749208 -3.199910 0.000000
-4.329991 -7.965832 0.000000
3.839220 -7.588100 0.000000
-8.712288 1.678425 0.000000
-3.248936 1.504301 0.000000
-9.416932 0.829615 0.000000
-0.014528 -17.116778 0.000000
10.780198 -2.544315 0.000000
-4.188645 -17.746433 0.000000
9.996694 -3.386480 0.000000
-9.838217 2.338823 0.000000
0.046553 10.738857 0.000000
-10.256223 -0.049115 0.000000
6.082213 5.352889 0.000000
-5.784784 -0.671422 0.000000
-5.338333 -2.407739 0.000000
4.469859 1.433672 0.000000
-0.850102 2.906094 0.000000
4.079835 7.452099 0.000000
7.480947 -4.320942 0.000000
6.835055 10.617898 0.000000
8.384169 6.255942 0.000000
-4.138572 -3.053058 0.000000
4.507056 -11.353240 0.000000
-3.403988 -18.643542 0.000000
0.177592 -15.211696 0.000000
3.396394 -6.189666 0.000000
-0.460876 5.198971 0.000000
-3.422206 -5.011361 0.000000
12.609038 5.495306 0.000000
11.062469 -10.340546 0.000000
7.900971 -13.683495 0.000000
7.276715 4.005817 0.000000
-11.289160 -4.307473 0.000000
1.124044 8.767143 0.000000
3.919293 11.323165 0.000000
-12.638126 15.117417 0.000000
10.044942 -9.417849 0.000000
-3.562810 -2.252180 0.000000
-6.200801 -3.943967 0.000000
-1.835623 -4.533740 0.000000
3.540650 0.453614 0.000000
6.003925 1.438169 0.000000
-10.293337 -2.730158 0.000000
-1.157486 17.921824 0.000000
-7.298301 17.154352 0.000000
6.118484 6.416203 0.000000
1.142280 -6.326344 0.000000
-2.003522 -10.799712 0.000000
2.004797 -0.012844 0.000000
0.592683 -13.975094 0.000000
-7.222906 1.667262 0.000000
-1.369644 6.819444 0.000000
-10.001657 -5.024633 0.000000
6.472434 10.422775 0.000000
-10.088352 1.859377 0.000000
7.672116 -0.385127 0.000000
5.490949 -3.092690 0.000000
-2.167337 3.012645 0.000000
0.147730 -7.708127 0.000000
-5.944661 -14.433273 0.000000
-7.182900 3.005019 0.000000
-5.403388 -6.504256 0.000000
4.624607 -12.411099 0.000000
-3.240422 9.972875 0.000000
-3.999878 -4.842307 0.000000
-3.776581 7.828205 0.000000
-12.839735 5.126415 0.000000
-5.348638 -2.404697 0.000000
10.599743 -9.010618 0.000000
-1.995404 10.927773 0.000000
1.142422 6.326191 0.000000
-2.598629 -7.142393 0.000000
-0.170588 -18.156470 0.000000
3.189800 -10.660723 0.000000
2.591105 5.401990 0.000000
-3.630369 -12.197830 0.000000
-2.640557 5.139256 0.000000
-1.519004 4.093710 0.000000
3.118505 10.807054 0.000000
-6.859823 -10.509771 0.000000
-1.799602 -18.064601 0.000000
-1.397118 6.073759 0.000000
6.165710 5.474188 0.000000
-1.492642 3.769921 0.000000
-11.792462 10.911326 0.000000
6.625953 6.458445 0.000000
13.080160 2.438242 0.000000
2.387631 4.291911 0.000000
-3.696018 -6.185014 0.000000
-11.574023 -6.565480 0.000000
3.593325 8.185674 0.000000
2.819997 15.336722 0.000000
0.488172 0.610709 0.000000
-1.222482 1.855512 0.000000
4.069447 -5.028596 0.000000
2.654680 7.009831 0.000000
4.837053 -9.997753 0.000000
-5.451747 -12.654421 0.000000
-5.685203 -6.816509 0.000000
-3.079064 -6.880971 0.000000
8.317561 0.738920 0.000000
7.073033 -8.014118 0.000000
4.934148 -2.414333 0.000000
-3.857087 4.487836 0.000000
-2.616880 3.932693 0.000000
8.280373 -1.844338 0.000000
-0.648170 -7.985505 0.000000
-3.734824 1.932845 0.000000
6.276894 -3.985717 0.000000
7.697015 -1.948414 0.000000
-10.768458 -3.938268 0.000000
12.535978 -3.735705 0.000000
2.138549 -1.888449 0.000000
-3.266022 14.036860 0.000000
1.481153 11.559668 0.000000
-6.962640 -2.924787 0.000000
-13.060865 1.716943 0.000000
-7.827301 0.203955 0.000000
1.640411 0.992492 0.000000
-9.464132 -3.389588 0.000000
4.837053 9.997753 0.000000
-2.901818 -4.334308 0.000000
11.894480 -4.552737 0.000000
6.578398 -14.986459 0.000000
0.556755 -9.461924 0.000000
6.115577 7.551265 0.000000
2.738838 -1.940108 0.000000
-8.113591 8.362164 0.000000
-2.780174 11.839554 0.000000
7.064966 -9.773940 0.000000
-7.360499 -10.781077 0.000000
3.856501 -13.713011 0.000000
9.260797 11.181234 0.000000
0.060202 -2.965645 0.000000
4.239797 5.673394 0.000000
5.371199 3.751998 0.000000
1.005294 -10.520448 0.000000
2.504494 -6.451798 0.000000
7.998006 -0.353235 0.000000
5.540769 -8.182369 0.000000
-1.416959 4.772388 0.000000
4.074639 -2.658268 0.000000
1.153061 -9.174494 0.000000
0.924384 7.847880 0.000000
-14.045626 0.285527 0.000000
0.745873 7.926999 0.000000
-5.624947 -0.258014 0.000000
-3.936239 -8.251950 0.000000
-3.786670 -5.156036 0.000000
-0.672565 -3.560701 0.000000
-2.687444 -6.698314 0.000000
3.900167 -8.689776 0.000000
2.523155 -7.736822 0.000000
0.774314 6.417745 0.000000
-12.607805 9.276939 0.000000
-3.528671 8.367491 0.000000
-5.163465 -7.617501 0.000000
-8.941933 6.806973 0.000000
-7.557017 -4.346818 0.000000
-13.005138 1.558394 0.000000
-7.983771 -3.808311 0.000000
-0.116507 4.970552 0.000000
5.864625 2.818689 0.000000
4.453996 7.569134 0.000000
3.888076 5.576133 0.000000
-0.525392 -5.498090 0.000000
-1.924003 4.223733 0.000000
-10.852728 2.670158 0.000000
-3.994554 6.623342 0.000000
-3.933037 8.252388 0.000000
-0.997242 -2.217136 0.000000
1.881662 0.365154 0.000000
5.491059 -5.649158 0.000000
-9.350199 4.994311 0.000000
-2.362583 -1.718531 0.000000
-6.770066 2.316259 0.000000
10.505370 -5.715755 0.000000
-18.993211 -13.910157 0.000000
-4.594611 -3.926227 0.000000
-9.314003 -7.225030 0.000000
-2.989642 -16.659188 0.000000
-3.423646 2.926203 0.000000
7.767708 -17.417660 0.000000
2.306301 1.479621 0.000000
12.072187 -5.362243 0.000000
0.722950 -2.183077 0.000000
-0.404632 -8.765380 0.000000
-5.202924 -3.511065 0.000000
-4.904377 1.765820 0.000000
-7.911106 1.855607 0.000000
-8.083685 18.294329 0.000000
-8.442105 -1.890866 0.000000
-7.805344 6.408243 0.000000
-3.909100 10.017217 0.000000
3.504313 -1.392573 0.000000
-6.486667 6.571599 0.000000
-3.785416 -16.054416 0.000000
-5.286848 -10.632796 0.000000
-8.180717 -0.348977 0.000000
-1.207752 6.598055 0.000000
-2.554253 13.125642 0.000000
-10.112014 3.321648 0.000000
0.649905 -4.006057 0.000000
-8.609301 2.012145 0.000000
-7.298057 5.362915 0.000000
0.809378 -11.677692 0.000000
-1.444276 -5.194984 0.000000
1.192032 -0.729300 0.000000
0.046862 6.087783 0.000000
-5.006568 2.575566 0.000000
2.064613 13.156600 0.000000
4.687318 11.098726 0.000000
-16.525482 11.824033 0.000000
4.312382 5.204053 0.000000
-13.441711 -0.566665 0.000000
2.431249 1.619896 0.000000
1.328372 3.708285 0.000000
-8.159881 2.710709 0.000000
5.854674 -6.382263 0.000000
2.160551 11.815122 0.000000
-2.507148 11.300222 0.000000
-7.084903 -7.997573 0.000000
8.596022 -7.982098 0.000000
-1.505274 -8.070106 0.000000
0.517340 5.212933 0.000000
-8.083617 -3.608167 0.000000