# vtk DataFile Version 4.0
hesp visualization file
ASCII
DATASET UNSTRUCTURED_GRID
POINTS 1250 double
34.817439 1.457693 4.000000
30.209996 -0.162395 4.000000
34.460469 5.227320 4.000000
32.905521 7.537191 4.000000
31.961497 4.902207 4.000000
30.640870 12.002663 4.000000
33.437787 11.813338 4.000000
31.663660 11.752594 4.000000
30.443818 13.553308 4.000000
32.781022 11.951889 4.000000
31.308544 12.985969 4.000000
31.143526 14.217940 4.000000
31.399095 14.921094 4.000000
31.413587 15.430778 4.000000
32.020608 17.019838 4.000000
29.461060 16.780283 4.000000
31.363764 19.610944 4.000000
30.779054 16.875607 4.000000
29.667036 21.678260 4.000000
30.599767 18.695776 4.000000
33.736873 23.312100 4.000000
31.837575 28.753988 4.000000
34.178726 23.621956 4.000000
32.645308 30.366175 4.000000
31.601677 27.989950 4.000000
31.100869 -12.899389 4.000000
33.151143 0.260612 4.000000
33.022030 -4.249316 4.000000
30.411673 2.527361 4.000000
30.196590 7.354191 4.000000
30.511543 6.202072 4.000000
30.227507 7.927638 4.000000
31.234422 11.957302 4.000000
33.040237 13.383704 4.000000
31.160174 12.418038 4.000000
31.012958 13.075027 4.000000
32.308412 12.647312 4.000000
32.508904 14.684188 4.000000
31.970614 16.512366 4.000000
32.889608 16.084931 4.000000
30.658052 16.279937 4.000000
32.587937 17.047172 4.000000
32.530559 16.769435 4.000000
32.448828 19.191334 4.000000
30.997291 24.000078 4.000000
31.446806 24.891325 4.000000
31.601329 23.052985 4.000000
33.031942 33.425491 4.000000
31.651534 26.347014 4.000000
31.100869 42.083402 4.000000
31.864322 -3.748788 4.000000
34.658533 2.793748 4.000000
33.491994 2.959349 4.000000
30.326233 8.237912 4.000000
35.301350 4.477019 4.000000
30.904919 9.570041 4.000000
32.869065 9.523104 4.000000
30.134369 5.581734 4.000000
30.317987 10.994284 4.000000
33.424502 12.294941 4.000000
34.314342 12.617468 4.000000
30.160292 14.568341 4.000000
34.140297 14.176987 4.000000
33.780860 14.216094 4.000000
31.928754 14.999231 4.000000
32.675274 17.977189 4.000000
30.951474 19.385855 4.000000
32.197483 20.305331 4.000000
34.092780 18.524926 4.000000
32.133419 17.739450 4.000000
31.709613 26.018482 4.000000
33.286916 19.362220 4.000000
31.931070 22.444231 4.000000
33.919435 26.803158 4.000000
31.858054 32.925887 4.000000
31.453811 -3.319693 4.000000
33.452864 -7.764061 4.000000
31.702038 4.738807 4.000000
35.773518 2.810714 4.000000
30.465664 3.365906 4.000000
31.816827 4.519477 4.000000
30.282633 9.312561 4.000000
30.928698 9.998328 4.000000
34.453020 10.380582 4.000000
33.972663 8.598860 4.000000
34.464729 15.300199 4.000000
33.788516 14.767609 4.000000
34.603141 13.846769 4.000000
32.187498 15.734196 4.000000
34.644877 14.860979 4.000000
31.742111 17.643842 4.000000
35.602153 18.561456 4.000000
30.779476 15.873625 4.000000
30.553947 21.198622 4.000000
29.738304 19.713886 4.000000
36.220663 25.819149 4.000000
35.119383 27.876654 4.000000
30.281897 25.542236 4.000000
33.452868 36.948074 4.000000
31.450496 32.505355 4.000000
33.065401 2.048609 4.000000
30.312506 4.215392 4.000000
32.040427 -4.230927 4.000000
34.252806 6.722875 4.000000
30.664494 9.342943 4.000000
30.764288 10.336080 4.000000
32.896688 7.954536 4.000000
31.316412 9.034416 4.000000
33.129561 8.582555 4.000000
32.543387 12.239996 4.000000
30.588147 14.488314 4.000000
34.588042 11.482599 4.000000
35.001908 16.901651 4.000000
32.672367 15.247933 4.000000
31.434731 13.555416 4.000000
34.276406 14.570361 4.000000
31.639405 20.707773 4.000000
31.785087 18.736439 4.000000
32.642200 24.033696 4.000000
31.440158 21.289516 4.000000
30.541343 22.873332 4.000000
34.738517 24.625573 4.000000
34.557217 30.440098 4.000000
33.890817 26.114937 4.000000
30.787333 28.259948 4.000000
30.348199 -4.142592 4.000000
31.673659 -6.762200 4.000000
37.186912 6.140448 4.000000
30.900258 6.445178 4.000000
31.495760 6.599261 4.000000
30.923133 5.831498 4.000000
30.996448 7.909484 4.000000
32.412173 11.325013 4.000000
33.155697 10.754214 4.000000
35.066321 11.280429 4.000000
30.594181 13.069947 4.000000
34.442107 12.825827 4.000000
32.829139 14.489339 4.000000
34.194633 16.945561 4.000000
34.998781 11.561176 4.000000
34.549720 15.726549 4.000000
33.120506 18.355628 4.000000
34.018899 22.163349 4.000000
31.214838 20.417087 4.000000
29.742919 22.816181 4.000000
33.499057 18.490809 4.000000
30.867856 18.749537 4.000000
38.638748 24.091867 4.000000
31.673990 35.946305 4.000000
30.348190 33.326616 4.000000
30.592477 0.037568 4.000000
36.564628 -0.282633 4.000000
32.456913 -0.889489 4.000000
33.699605 3.243180 4.000000
31.022984 11.323372 4.000000
31.104432 6.631579 4.000000
34.268897 8.769569 4.000000
35.846362 11.374295 4.000000
31.157727 7.604733 4.000000
32.703323 12.887455 4.000000
32.026831 11.468880 4.000000
34.868024 14.282353 4.000000
33.406512 13.404758 4.000000
32.001116 14.169716 4.000000
32.912747 21.004993 4.000000
30.970759 17.903995 4.000000
32.070486 23.915008 4.000000
34.819673 22.239523 4.000000
33.126143 22.880796 4.000000
30.595212 21.879672 4.000000
32.119068 24.527486 4.000000
34.463753 19.803824 4.000000
31.203080 26.368875 4.000000
33.750784 27.699125 4.000000
31.296406 29.536933 4.000000
39.825180 -8.613830 4.000000
33.955392 -0.281497 4.000000
39.187913 1.615116 4.000000
32.068965 7.313597 4.000000
32.591301 6.396521 4.000000
32.439983 5.146042 4.000000
34.490054 11.103727 4.000000
37.814675 9.233523 4.000000
31.463850 10.131277 4.000000
33.216380 12.579546 4.000000
32.605025 12.638824 4.000000
34.546728 12.307893 4.000000
34.627989 16.635724 4.000000
35.091637 17.445499 4.000000
37.954995 17.495402 4.000000
33.685223 17.733781 4.000000
34.769915 19.639812 4.000000
36.554115 18.869486 4.000000
36.029821 18.379952 4.000000
31.609556 21.034991 4.000000
34.501649 18.810251 4.000000
34.611610 21.444050 4.000000
35.326494 30.068559 4.000000
34.568515 21.002830 4.000000
39.825180 37.797843 4.000000
31.307616 1.390601 4.000000
30.418808 1.669816 4.000000
35.278085 -2.278732 4.000000
37.410041 7.318587 4.000000
32.238767 7.622496 4.000000
35.255156 6.274301 4.000000
31.647730 11.330092 4.000000
36.967494 9.846152 4.000000
35.522311 10.262324 4.000000
34.693163 10.270376 4.000000
35.665856 11.602027 4.000000
35.878136 15.109023 4.000000
36.432399 14.799462 4.000000
33.690831 15.494269 4.000000
33.022439 18.073558 4.000000
35.132488 18.311049 4.000000
34.574410 18.110430 4.000000
36.021793 17.375324 4.000000
31.263061 19.202208 4.000000
31.967986 20.028431 4.000000
33.696082 20.828998 4.000000
35.527175 26.095175 4.000000
37.445283 31.021571 4.000000
30.285741 29.225426 4.000000
33.187770 29.881148 4.000000
32.710840 0.568667 4.000000
32.981630 -5.113912 4.000000
34.075838 0.655272 4.000000
35.016990 3.900842 4.000000
33.907939 10.810532 4.000000
33.352736 4.921183 4.000000
37.537659 8.652323 4.000000
37.046990 11.288328 4.000000
34.901294 12.929458 4.000000
37.268928 12.152923 4.000000
35.248319 13.383044 4.000000
36.870527 13.764217 4.000000
35.598441 15.253262 4.000000
37.482122 16.994559 4.000000
36.280053 16.583144 4.000000
36.842180 14.785008 4.000000
36.929052 16.988347 4.000000
32.296893 20.040368 4.000000
34.075669 21.153011 4.000000
36.353515 23.188463 4.000000
35.713857 23.406676 4.000000
35.203011 25.527820 4.000000
34.002868 28.566387 4.000000
32.981633 34.297924 4.000000
32.712297 28.705662 4.000000
32.768568 -0.975970 4.000000
35.031518 -0.411231 4.000000
36.796788 3.066914 4.000000
34.211077 2.653082 4.000000
36.908693 5.025120 4.000000
38.249340 9.195627 4.000000
33.418807 8.173098 4.000000
35.575446 11.999556 4.000000
35.536407 9.683855 4.000000
37.657098 15.284611 4.000000
35.264416 12.732151 4.000000
35.576961 13.068646 4.000000
37.735145 13.399765 4.000000
36.006728 13.520427 4.000000
36.744209 17.937154 4.000000
38.140565 15.027516 4.000000
35.445635 17.951328 4.000000
35.394751 15.818477 4.000000
33.153648 20.489499 4.000000
35.572538 20.137299 4.000000
39.536569 22.270326 4.000000
32.012618 28.283324 4.000000
35.684260 24.041267 4.000000
34.258663 25.220453 4.000000
30.844170 29.557872 4.000000
30.175843 -2.470544 4.000000
33.329125 -1.876896 4.000000
37.245757 10.767054 4.000000
33.833757 2.553562 4.000000
38.033895 7.903477 4.000000
37.584321 8.198762 4.000000
36.952216 9.209196 4.000000
35.682487 7.881753 4.000000
35.942371 9.930567 4.000000
36.006294 11.908398 4.000000
38.720449 13.482875 4.000000
37.931400 13.559582 4.000000
37.972689 16.297358 4.000000
35.730433 15.833827 4.000000
36.673337 15.912162 4.000000
34.760511 17.909742 4.000000
37.180700 17.038478 4.000000
37.852634 20.055092 4.000000
39.420378 20.769861 4.000000
36.362710 23.667765 4.000000
36.288232 26.168130 4.000000
33.576372 27.327252 4.000000
38.177067 20.077147 4.000000
32.973762 30.809443 4.000000
30.175105 31.657857 4.000000
31.055007 0.579507 4.000000
32.265189 -1.903392 4.000000
39.936428 3.200282 4.000000
40.079575 5.541224 4.000000
38.859237 5.696990 4.000000
35.640497 6.382922 4.000000
36.260754 9.618682 4.000000
34.980290 8.872476 4.000000
36.563517 12.488957 4.000000
37.460995 11.718023 4.000000
38.257584 10.609893 4.000000
38.087580 12.874765 4.000000
38.612482 15.995618 4.000000
38.331312 14.730433 4.000000
38.233073 18.983843 4.000000
35.706876 18.082802 4.000000
35.557198 18.856369 4.000000
37.462875 20.057655 4.000000
37.584146 18.822202 4.000000
36.484523 24.438752 4.000000
38.502594 21.754622 4.000000
35.616005 20.896659 4.000000
37.749190 29.543560 4.000000
32.256226 31.151034 4.000000
30.149486 30.079370 4.000000
33.204285 -0.394519 4.000000
34.703799 1.952595 4.000000
34.533097 -0.548470 4.000000
35.800347 3.806431 4.000000
36.841521 4.720030 4.000000
38.873208 5.233391 4.000000
38.059635 7.088040 4.000000
38.770483 8.720663 4.000000
37.369682 10.250717 4.000000
37.632749 11.029079 4.000000
37.871769 12.211888 4.000000
40.205911 12.581785 4.000000
37.845348 14.595839 4.000000
38.630373 16.304311 4.000000
41.007678 16.560737 4.000000
36.963140 18.695331 4.000000
40.075899 17.767040 4.000000
36.263787 18.406206 4.000000
37.432931 20.904803 4.000000
[...]
POINT_DATA 1250
SCALARS m double
LOOKUP_TABLE default
1.000000
1.000000
1.000000
1.000000
1.000000
1.000000
1.000000
1.000000
1.000000
1.000000
1.000000
1.000000
1.000000
1.000000
1.000000
1.000000
1.000000
1.000000
1.000000
1.000000
1.000000
1.000000
1.000000
1.000000
1.000000
1.000000
1.000000
1.000000
1.000000
1.000000
1.000000
1.000000
1.000000
1.000000
1.000000
1.000000
1.000000
1.000000
1.000000
1.000000
1.000000
1.000000
1.000000
1.000000
1.000000
1.000000
1.000000
1.000000
1.000000
1.000000
1.000000
1.000000
1.000000
1.000000
1.000000
1.000000
1.000000
1.000000
1.000000
1.000000
1.000000
1.000000
1.000000
1.000000
1.000000
1.000000
1.000000
1.000000
1.000000
1.000000
1.000000
1.000000
1.000000
1.000000
1.000000
1.000000
1.000000
1.000000
1.000000
1.000000
1.000000
1.000000
1.000000
1.000000
1.000000
1.000000
1.000000
1.000000
1.000000
1.000000
1.000000
1.000000
1.000000
1.000000
1.000000
1.000000
1.000000
1.000000
1.000000
1.000000
1.000000
1.000000
1.000000
1.000000
1.000000
1.000000
1.000000
1.000000
1.000000
1.000000
1.000000
1.000000
1.000000
1.000000
1.000000
1.000000
1.000000
1.000000
1.000000
1.000000
1.000000
1.000000
1.000000
1.000000
1.000000
1.000000
1.000000
1.000000
1.000000
1.000000
1.000000
1.000000
1.000000
1.000000
1.000000
1.000000
1.000000
1.000000
1.000000
1.000000
1.000000
1.000000
1.000000
1.000000
1.000000
1.000000
1.000000
1.000000
1.000000
1.000000
1.000000
1.000000
1.000000
1.000000
1.000000
1.000000
1.000000
1.000000
1.000000
1.000000
1.000000
1.000000
1.000000
1.000000
1.000000
1.000000
1.000000
1.000000
1.000000
1.000000
1.000000
1.000000
1.000000
1.000000
1.000000
1.000000
1.000000
1.000000
1.000000
1.000000
1.000000
1.000000
1.000000
1.000000
1.000000
1.000000
1.000000
1.000000
1.000000
1.000000
1.000000
1.000000
1.000000
1.000000
1.000000
1.000000
1.000000
1.000000
1.000000
1.000000
1.000000
1.000000
1.000000
1.000000
1.000000
1.000000
1.000000
1.000000
1.000000
1.000000
1.000000
1.000000
1.000000
1.000000
1.000000
1.000000
1.000000
1.000000
1.000000
1.000000
1.000000
1.000000
1.000000
1.000000
1.000000
1.000000
1.000000
1.000000
1.000000
1.000000
1.000000
1.000000
1.000000
1.000000
1.000000
1.000000
1.000000
1.000000
1.000000
1.000000
1.000000
1.000000
1.000000
1.000000
1.000000
1.000000
1.000000
1.000000
1.000000
1.000000
1.000000
1.000000
1.000000
1.000000
1.000000
1.000000
1.000000
1.000000
1.000000
1.000000
1.000000
1.000000
1.000000
1.000000
1.000000
1.000000
1.000000
1.000000
1.000000
1.000000
1.000000
1.000000
1.000000
1.000000
1.000000
1.000000
1.000000
1.000000
1.000000
1.000000
1.000000
1.000000
1.000000
1.000000
1.000000
1.000000
1.000000
1.000000
1.000000
1.000000
1.000000
1.000000
1.000000
1.000000
1.000000
1.000000
1.000000
1.000000
1.000000
1.000000
1.000000
1.000000
1.000000
1.000000
1.000000
1.000000
1.000000
1.000000
1.000000
1.000000
1.000000
1.000000
1.000000
1.000000
1.000000
1.000000
1.000000
1.000000
1.000000
1.000000
1.000000
1.000000
1.000000
1.000000
1.000000
1.000000
1.000000
1.000000
1.000000
1.000000
1.000000
1.000000
1.000000
1.000000
1.000000
1.000000
1.000000
1.000000
1.000000
1.000000
1.000000
1.000000
1.000000
1.000000
1.000000
1.000000
1.000000
1.000000
1.000000
1.000000
1.000000
1.000000
1.000000
1.000000
1.000000
1.000000
1.000000
1.000000
1.000000
1.000000
1.000000
1.000000
1.000000
1.000000
1.000000
1.000000
1.000000
1.000000
1.000000
1.000000
1.000000
1.000000
1.000000
1.000000
1.000000
1.000000
1.000000
1.000000
1.000000
1.000000
1.000000
1.000000
1.000000
1.000000
1.000000
1.000000
1.000000
1.000000
1.000000
1.000000
1.000000
1.000000
1.000000
1.000000
1.000000
1.000000
1.000000
1.000000
1.000000
1.000000
1.000000
1.000000
1.000000
1.000000
1.000000
1.000000
1.000000
1.000000
1.000000
1.000000
1.000000
1.000000
1.000000
1.000000
1.000000
1.000000
1.000000
1.000000
1.000000
1.000000
1.000000
1.000000
1.000000
1.000000
1.000000
1.000000
1.000000
1.000000
1.000000
1.000000
1.000000
1.000000
1.000000
1.000000
1.000000
1.000000
1.000000
1.000000
1.000000
1.000000
1.000000
1.000000
1.000000
1.000000
1.000000
1.000000
1.000000
1.000000
1.000000
1.000000
1.000000
1.000000
1.000000
1.000000
1.000000
1.000000
1.000000
1.000000
1.000000
1.000000
1.000000
1.000000
1.000000
1.000000
1.000000
1.000000
1.000000
1.000000
1.000000
1.000000
1.000000
1.000000
1.000000
1.000000
1.000000
1.000000
1.000000
1.000000
1.000000
1.000000
1.000000
1.000000
1.000000
1.000000
1.000000
1.000000
1.000000
1.000000
1.000000
1.000000
1.000000
1.000000
1.000000
1.000000
1.000000
1.000000
1.000000
1.000000
1.000000
1.000000
1.000000
1.000000
1.000000
1.000000
1.000000
1.000000
1.000000
1.000000
1.000000
1.000000
1.000000
1.000000
1.000000
1.000000
1.000000
1.000000
1.000000
1.000000
1.000000
1.000000
1.000000
1.000000
1.000000
1.000000
1.000000
1.000000
1.000000
1.000000
1.000000
1.000000
1.000000
1.000000
1.000000
1.000000
1.000000
1.000000
1.000000
1.000000
1.000000
1.000000
1.000000
1.000000
1.000000
1.000000
1.000000
1.000000
1.000000
1.000000
1.000000
1.000000
1.000000
1.000000
1.000000
1.000000
1.000000
1.000000
1.000000
1.000000
1.000000
1.000000
1.000000
1.000000
1.000000
1.000000
1.000000
1.000000
1.000000
1.000000
1.000000
1.000000
1.000000
1.000000
1.000000
1.000000
1.000000
1.000000
1.000000
1.000000
1.000000
1.000000
1.000000
1.000000
1.000000
1.000000
1.000000
1.000000
1.000000
1.000000
1.000000
1.000000
1.000000
1.000000
1.000000
1.000000
1.000000
1.000000
1.000000
1.000000
1.000000
1.000000
1.000000
1.000000
1.000000
1.000000
1.000000
1.000000
1.000000
1.000000
1.000000
1.000000
1.000000
1.000000
1.000000
1.000000
1.000000
1.000000
1.000000
1.000000
1.000000
1.000000
1.000000
1.000000
1.000000
1.000000
1.000000
1.000000
1.000000
1.000000
1.000000
1.000000
1.000000
1.000000
1.000000
1.000000
1.000000
1.000000
1.000000
1.000000
1.000000
1.000000
1.000000
1.000000
1.000000
1.000000
1.000000
1.000000
1.000000
1.000000
1.000000
1.000000
1.000000
1.000000
1.000000
1.000000
1.000000
1.000000
1.000000
1.000000
1.000000
1.000000
1.000000
1.000000
1.000000
1.000000
1.000000
1.000000
1.000000
1.000000
1.000000
1.000000
1.000000
1.000000
1.000000
1.000000
1.000000
1.000000
1.000000
1.000000
1.000000
1.000000
1.000000
1.000000
1.000000
1.000000
1.000000
1.000000
1.000000
1.000000
1.000000
1.000000
1.000000
1.000000
1.000000
1.000000
1.000000
1.000000
1.000000
1.000000
1.000000
1.000000
1.000000
1.000000
1.000000
1.000000
1.000000
1.000000
1.000000
1.000000
1.000000
1.000000
1.000000
1.000000
1.000000
1.000000
1.000000
1.000000
1.000000
1.000000
1.000000
1.000000
1.000000
1.000000
1.000000
1.000000
1.000000
1.000000
1.000000
1.000000
1.000000
1.000000
1.000000
1.000000
1.000000
1.000000
1.000000
1.000000
1.000000
1.000000
1.000000
1.000000
1.000000
1.000000
1.000000
1.000000
1.000000
1.000000
1.000000
1.000000
1.000000
1.000000
1.000000
1.000000
1.000000
1.000000
1.000000
1.000000
1.000000
1.000000
1.000000
1.000000
1.000000
1.000000
1.000000
1.000000
1.000000
1.000000
1.000000
1.000000
1.000000
1.000000
1.000000
1.000000
1.000000
1.000000
1.000000
1.000000
1.000000
1.000000
1.000000
1.000000
1.000000
1.000000
1.000000
1.000000
1.000000
1.000000
1.000000
1.000000
1.000000
1.000000
1.000000
1.000000
1.000000
1.000000
1.000000
1.000000
1.000000
1.000000
1.000000
1.000000
1.000000
1.000000
1.000000
1.000000
1.000000
1.000000
1.000000
1.000000
1.000000
1.000000
1.000000
1.000000
1.000000
1.000000
1.000000
1.000000
1.000000
1.000000
1.000000
1.000000
1.000000
1.000000
1.000000
1.000000
1.000000
1.000000
1.000000
1.000000
1.000000
1.000000
1.000000
1.000000
1.000000
1.000000
1.000000
1.000000
1.000000
1.000000
1.000000
1.000000
1.000000
1.000000
1.000000
1.000000
1.000000
1.000000
1.000000
1.000000
1.000000
1.000000
1.000000
1.000000
1.000000
1.000000
1.000000
1.000000
1.000000
1.000000
1.000000
1.000000
1.000000
1.000000
1.000000
1.000000
1.000000
1.000000
1.000000
1.000000
1.000000
1.000000
1.000000
1.000000
1.000000
1.000000
1.000000
1.000000
1.000000
1.000000
1.000000
1.000000
1.000000
1.000000
1.000000
1.000000
1.000000
1.000000
1.000000
1.000000
1.000000
1.000000
1.000000
1.000000
1.000000
1.000000
1.000000
1.000000
1.000000
1.000000
1.000000
1.000000
1.000000
1.000000
1.000000
1.000000
1.000000
1.000000
1.000000
1.000000
1.000000
1.000000
1.000000
1.000000
1.000000
1.000000
1.000000
1.000000
1.000000
1.000000
1.000000
1.000000
1.000000
1.000000
1.000000
1.000000
1.000000
1.000000
1.000000
1.000000
1.000000
1.000000
1.000000
1.000000
1.000000
1.000000
1.000000
1.000000
1.000000
1.000000
1.000000
1.000000
1.000000
1.000000
1.000000
1.000000
1.000000
1.000000
1.000000
1.000000
1.000000
1.000000
1.000000
1.000000
1.000000
1.000000
1.000000
1.000000
1.000000
1.000000
1.000000
1.000000
1.000000
1.000000
1.000000
1.000000
1.000000
1.000000
1.000000
1.000000
1.000000
1.000000
1.000000
1.000000
1.000000
1.000000
1.000000
1.000000
1.000000
1.000000
1.000000
1.000000
1.000000
1.000000
1.000000
1.000000
1.000000
1.000000
1.000000
1.000000
1.000000
1.000000
1.000000
1.000000
1.000000
1.000000
1.000000
1.000000
1.000000
1.000000
1.000000
1.000000
1.000000
1.000000
1.000000
1.000000
1.000000
1.000000
1.000000
1.000000
1.000000
1.000000
1.000000
1.000000
1.000000
1.000000
1.000000
1.000000
1.000000
1.000000
1.000000
1.000000
1.000000
1.000000
1.000000
1.000000
1.000000
1.000000
1.000000
1.000000
1.000000
1.000000
1.000000
1.000000
1.000000
1.000000
1.000000
1.000000
1.000000
1.000000
1.000000
1.000000
1.000000
1.000000
1.000000
1.000000
1.000000
1.000000
1.000000
1.000000
1.000000
1.000000
1.000000
1.000000
1.000000
1.000000
1.000000
1.000000
1.000000
1.000000
1.000000
1.000000
1.000000
1.000000
1.000000
1.000000
1.000000
1.000000
1.000000
1.000000
1.000000
1.000000
1.000000
1.000000
1.000000
1.000000
1.000000
1.000000
1.000000
1.000000
1.000000
1.000000
1.000000
1.000000
1.000000
1.000000
1.000000
1.000000
1.000000
1.000000
1.000000
1.000000
1.000000
1.000000
1.000000
1.000000
1.000000
1.000000
1.000000
1.000000
1.000000
1.000000
1.000000
1.000000
1.000000
1.000000
1.000000
1.000000
1.000000
1.000000
1.000000
1.000000
1.000000
1.000000
1.000000
1.000000
1.000000
1.000000
1.000000
1.000000
1.000000
1.000000
1.000000
1.000000
1.000000
1.000000
1.000000
1.000000
1.000000
1.000000
1.000000
1.000000
1.000000
1.000000
1.000000
1.000000
1.000000
1.000000
1.000000
1.000000
1.000000
1.000000
1.000000
1.000000
1.000000
1.000000
1.000000
1.000000
1.000000
1.000000
1.000000
1.000000
1.000000
1.000000
1.000000
1.000000
1.000000
1.000000
1.000000
1.000000
1.000000
1.000000
1.000000
1.000000
1.000000
1.000000
1.000000
1.000000
1.000000
1.000000
1.000000
1.000000
1.000000
1.000000
1.000000
1.000000
1.000000
1.000000
1.000000
1.000000
1.000000
1.000000
1.000000
1.000000
1.000000
1.000000
1.000000
1.000000
1.000000
1.000000
1.000000
1.000000
1.000000
1.000000
1.000000
1.000000
1.000000
1.000000
1.000000
1.000000
1.000000
1.000000
1.000000
1.000000
1.000000
1.000000
1.000000
1.000000
1.000000
1.000000
1.000000
1.000000
1.000000
1.000000
1.000000
1.000000
1.000000
1.000000
1.000000
1.000000
1.000000
1.000000
1.000000
1.000000
1.000000
1.000000
1.000000
1.000000
1.000000
1.000000
1.000000
1.000000
1.000000
1.000000
1.000000
1.000000
1.000000
1.000000
1.000000
1.000000
1.000000
1.000000
1.000000
1.000000
1.000000
1.000000
1.000000
1.000000
1.000000
1.000000
1.000000
1.000000
VECTORS v double
4.062635 -6.721772 0.000000
2.738866 -3.600931 0.000000
-2.986343 4.975476 0.000000
-6.275839 -1.334251 0.000000
5.263496 -4.898083 0.000000
0.094117 11.057857 0.000000
7.430798 -2.658228 0.000000
2.632459 5.361343 0.000000
5.466913 9.832978 0.000000
7.343187 6.799327 0.000000
3.073098 5.347624 0.000000
7.473597 5.106680 0.000000
8.965532 7.789811 0.000000
9.838362 -1.590882 0.000000
-3.413432 4.253972 0.000000
-5.578084 -4.847985 0.000000
2.073026 0.968431 0.000000
8.943979 -10.672390 0.000000
-5.781422 3.840543 0.000000
-1.605500 -7.491025 0.000000
-0.071991 -9.109017 0.000000
7.292460 7.523368 0.000000
2.357629 -2.512600 0.000000
-3.511122 0.424290 0.000000
-2.151164 1.884644 0.000000
2.630968 -13.726701 0.000000
0.992070 2.849572 0.000000
5.361518 -9.592486 0.000000
-0.737337 -10.302587 0.000000
0.042469 5.575222 0.000000
-1.605373 -8.170387 0.000000
-4.506051 -1.712528 0.000000
-1.196822 3.588978 0.000000
2.822787 4.915968 0.000000
-1.315952 12.579607 0.000000
-8.097767 1.809356 0.000000
8.203572 -5.137970 0.000000
9.356511 0.944661 0.000000
1.708085 7.999043 0.000000
7.120333 -1.288274 0.000000
-8.532704 -19.158518 0.000000
-4.090167 -6.681236 0.000000
8.679591 -3.858797 0.000000
13.618800 -0.398235 0.000000
1.256026 0.127127 0.000000
4.266072 -12.585290 0.000000
-3.766681 -8.807667 0.000000
5.386239 9.583377 0.000000
-0.721379 8.099029 0.000000
2.630968 13.726701 0.000000
-0.078227 -9.557280 0.000000
13.202310 -9.374999 0.000000
5.287682 -4.471886 0.000000
-7.139997 1.366063 0.000000
5.722831 -9.752198 0.000000
-0.313908 9.261352 0.000000
-5.356103 -6.792120 0.000000
6.193054 -2.821322 0.000000
4.684000 26.420966 0.000000
4.132428 -10.452504 0.000000
6.860785 -5.077912 0.000000
7.364259 7.207723 0.000000
12.554562 0.359045 0.000000
9.416694 -10.701796 0.000000
-0.395615 -9.727550 0.000000
-4.173576 -3.194553 0.000000
-12.637925 5.256767 0.000000
-3.771176 -6.199108 0.000000
1.662278 6.621926 0.000000
13.158713 -9.337298 0.000000
3.579793 -0.764891 0.000000
-1.422802 -9.576813 0.000000
3.516599 2.341346 0.000000
0.963053 7.972823 0.000000
-0.268311 9.476757 0.000000
0.034795 -3.580541 0.000000
6.835053 -10.617900 0.000000
-2.290716 3.341463 0.000000
6.021434 -2.445993 0.000000
-9.036198 3.681916 0.000000
-5.260019 -1.844910 0.000000
-1.305298 -8.802512 0.000000
-2.946518 -6.574138 0.000000
-5.746314 -8.209008 0.000000
5.142482 -12.245376 0.000000
-7.248481 15.315991 0.000000
1.568657 -0.687296 0.000000
1.495898 -19.154662 0.000000
1.698551 -2.662418 0.000000
0.947764 10.259569 0.000000
-4.237794 0.535212 0.000000
8.799910 -0.152272 0.000000
-1.525120 -11.581421 0.000000
9.794175 7.660400 0.000000
-4.026858 -1.811147 0.000000
1.354775 6.977775 0.000000
4.146311 7.001102 0.000000
-6.029035 8.665237 0.000000
6.835058 10.617899 0.000000
0.008026 3.587147 0.000000
-4.974642 -0.425360 0.000000
6.629359 -6.519934 0.000000
-3.410468 -18.534819 0.000000
-5.890996 -5.512339 0.000000
3.988454 1.695180 0.000000
-1.192861 7.609740 0.000000
2.303696 -1.370786 0.000000
12.493672 5.673343 0.000000
6.076536 2.707667 0.000000
8.244806 8.983920 0.000000
-13.386706 8.223057 0.000000
-0.690978 -10.554594 0.000000
6.442212 3.059010 0.000000
-12.414675 3.421243 0.000000
-4.985946 -9.259051 0.000000
8.663241 -3.137294 0.000000
-6.062859 5.801593 0.000000
8.550678 -11.106197 0.000000
7.032577 5.925854 0.000000
-3.608664 0.759116 0.000000
-1.052576 8.887544 0.000000
0.085654 -4.305016 0.000000
9.790824 6.642262 0.000000
4.283241 11.352203 0.000000
-8.378480 6.270795 0.000000
-1.121021 -6.327057 0.000000
-1.995850 -10.927659 0.000000
5.238266 -12.357899 0.000000
-3.007904 6.722879 0.000000
-5.844952 -6.469209 0.000000
6.959509 2.863986 0.000000
10.486920 -1.757586 0.000000
1.515212 5.880374 0.000000
10.881024 -0.454611 0.000000
-12.487699 -4.467091 0.000000
-8.242573 -7.590961 0.000000
-3.119630 -23.201120 0.000000
-1.239024 16.022149 0.000000
-10.626469 -9.502039 0.000000
-1.536789 -14.170070 0.000000
-6.529852 -6.495814 0.000000
4.806686 3.297665 0.000000
4.024689 12.402630 0.000000
-2.518802 -2.828794 0.000000
-3.192197 7.940403 0.000000
-0.636700 -11.615297 0.000000
0.974154 0.996514 0.000000
10.682316 -8.862697 0.000000
-1.995411 10.927785 0.000000
-1.121062 6.327086 0.000000
4.823087 -6.108579 0.000000
-0.673563 -18.200445 0.000000
-4.343616 -1.355617 0.000000
-6.057627 -7.478324 0.000000
-8.447604 -5.241270 0.000000
-5.682836 -9.196196 0.000000
-16.861279 -6.484878 0.000000
14.466936 0.561065 0.000000
-9.597788 -3.701340 0.000000
-9.984726 8.716851 0.000000
3.198573 -8.698401 0.000000
6.303549 5.753068 0.000000
-1.832003 -3.861558 0.000000
-10.239979 -4.895081 0.000000
-3.608174 14.526743 0.000000
-6.892999 4.566157 0.000000
-0.017502 2.304935 0.000000
-8.257127 13.699566 0.000000
-0.604118 -6.567917 0.000000
-2.601321 -6.440153 0.000000
3.263492 15.286350 0.000000
3.921955 -7.723801 0.000000
-0.382161 7.908440 0.000000
-7.569421 14.816253 0.000000
2.534702 7.173867 0.000000
4.837053 -9.997753 0.000000
-2.018505 -9.046263 0.000000
10.438856 -0.615585 0.000000
5.475588 2.050078 0.000000
-8.123708 3.987703 0.000000
-2.469633 -4.764503 0.000000
2.385555 2.704052 0.000000
3.598485 0.306685 0.000000
-2.502528 3.885839 0.000000
-2.732800 5.418602 0.000000
-15.524070 6.720386 0.000000
-6.644094 -5.252085 0.000000
-9.415053 14.588122 0.000000
17.014301 6.206640 0.000000
6.329053 4.657412 0.000000
-2.404431 5.480942 0.000000
-2.964513 -0.331301 0.000000
-11.922548 -4.657645 0.000000
-1.340707 -1.323441 0.000000
-5.438671 -4.297930 0.000000
-10.273410 -10.508285 0.000000
-2.561924 -12.485001 0.000000
-5.418700 11.098217 0.000000
-4.355730 -12.602023 0.000000
4.837053 9.997753 0.000000
-2.900057 -4.336292 0.000000
-4.326133 8.075368 0.000000
-5.565250 -11.597383 0.000000
-2.183023 4.917240 0.000000
-7.637289 -0.384020 0.000000
-2.531800 -2.915486 0.000000
-8.894867 11.948083 0.000000
2.166969 -6.655950 0.000000
4.006884 -1.704392 0.000000
2.242349 -11.805289 0.000000
5.179482 -8.177270 0.000000
6.881564 2.906961 0.000000
14.419598 12.795331 0.000000
-8.351957 -0.430114 0.000000
-10.281866 8.195947 0.000000
2.893380 9.654395 0.000000
-2.148326 1.004865 0.000000
3.359650 -8.571751 0.000000
-6.938479 -7.347989 0.000000
-9.084646 -5.552509 0.000000
3.886670 -2.569135 0.000000
-8.644795 -2.649433 0.000000
0.934288 7.853381 0.000000
-6.271777 4.426067 0.000000
0.412885 8.136355 0.000000
1.677557 -0.920717 0.000000
-3.933836 -8.255703 0.000000
-7.097455 -6.583848 0.000000
-0.694277 -3.574092 0.000000
-0.675930 18.439121 0.000000
-13.729913 -6.344091 0.000000
-4.530732 10.225570 0.000000
10.011368 4.967551 0.000000
-1.771743 -2.229963 0.000000
-1.559048 -10.581086 0.000000
-10.339816 -1.522234 0.000000
7.418911 0.988887 0.000000
-10.685767 -2.129785 0.000000
16.150015 13.507597 0.000000
18.950113 -1.911344 0.000000
-6.531988 -3.520159 0.000000
-6.321357 8.969273 0.000000
-7.692240 1.092568 0.000000
-7.878875 9.753566 0.000000
2.601436 -1.883733 0.000000
-2.038281 4.312871 0.000000
-7.453020 4.205169 0.000000
-7.310325 6.996837 0.000000
-3.933755 8.255826 0.000000
1.781079 1.792509 0.000000
-0.201497 -6.899739 0.000000
-13.141742 -7.349012 0.000000
3.150752 3.011091 0.000000
-2.456134 -1.218029 0.000000
-3.813444 4.158982 0.000000
6.383566 7.160752 0.000000
-10.319310 2.135800 0.000000
5.500030 6.731124 0.000000
-4.191287 3.787809 0.000000
12.502252 11.090081 0.000000
-2.759299 0.628177 0.000000
-1.417527 -9.696310 0.000000
4.684261 8.268316 0.000000
-10.158791 -14.909344 0.000000
3.899364 -6.296031 0.000000
6.922148 -1.852367 0.000000
-4.192977 -6.334377 0.000000
-0.921610 -8.881765 0.000000
-7.762811 1.780512 0.000000
-3.518246 -4.863809 0.000000
-6.955037 -8.910133 0.000000
-7.739268 6.486187 0.000000
5.022426 8.327857 0.000000
-7.090253 -1.556493 0.000000
-10.802753 -0.808039 0.000000
-8.038368 -7.180541 0.000000
6.845818 -14.032962 0.000000
-17.927521 5.605645 0.000000
3.054058 -7.435910 0.000000
-0.705145 13.470037 0.000000
-7.322416 -10.894252 0.000000
-2.803995 4.136423 0.000000
-6.279280 0.963976 0.000000
5.257296 9.894477 0.000000
0.293113 11.477455 0.000000
4.811741 3.970343 0.000000
-8.454623 0.426032 0.000000
0.853810 11.951338 0.000000
-9.804764 1.503776 0.000000
7.843567 1.412594 0.000000
-7.173468 -0.292443 0.000000
2.203530 -12.102120 0.000000
-1.007137 3.997692 0.000000
7.271169 0.740057 0.000000
-5.316910 -2.797405 0.000000
1.039799 10.027153 0.000000
-7.922840 2.335016 0.000000
9.397235 -1.514147 0.000000
2.166124 11.820673 0.000000
-8.042486 7.192565 0.000000
4.303817 -10.053731 0.000000
-8.552577 -9.252582 0.000000
3.571055 1.430138 0.000000
-7.866184 3.630019 0.000000
-6.024395 -2.046057 0.000000
1.747156 1.455818 0.000000