# vtk DataFile Version 4.0
hesp visualization file
ASCII
DATASET UNSTRUCTURED_GRID
POINTS 1250 double
33.841124 3.422839 4.000000
30.441715 2.698557 4.000000
33.034369 4.158108 4.000000
32.208720 4.447697 4.000000
31.468495 5.920316 4.000000
30.285048 7.769817 4.000000
30.582545 8.256443 4.000000
30.288903 8.979353 4.000000
30.288566 10.102160 4.000000
30.288565 11.224620 4.000000
30.288565 12.347083 4.000000
30.288565 13.469545 4.000000
30.288565 14.592007 4.000000
30.288565 15.714469 4.000000
30.288565 16.836931 4.000000
30.288565 17.959393 4.000000
30.288566 19.081854 4.000000
30.288903 20.204660 4.000000
30.577146 20.928294 4.000000
30.285205 21.414509 4.000000
31.466197 23.265083 4.000000
32.219872 24.807847 4.000000
33.009875 24.999118 4.000000
30.387055 26.510030 4.000000
33.841016 25.761139 4.000000
30.527815 -5.761504 4.000000
33.941658 1.405400 4.000000
30.205657 0.799001 4.000000
31.403058 4.420650 4.000000
31.569005 6.643849 4.000000
31.416368 7.148127 4.000000
31.619735 7.814975 4.000000
31.037377 8.980243 4.000000
31.037371 10.102155 4.000000
31.037369 11.224620 4.000000
31.037369 12.347083 4.000000
31.037369 13.469545 4.000000
31.037369 14.592007 4.000000
31.037369 15.714469 4.000000
31.037369 16.836931 4.000000
31.037369 17.959393 4.000000
31.037371 19.081858 4.000000
31.037377 20.203770 4.000000
31.619727 21.368998 4.000000
31.418224 22.035450 4.000000
31.689901 22.440685 4.000000
31.405213 24.778545 4.000000
30.208145 28.383056 4.000000
33.941657 27.778615 4.000000
30.527815 34.945518 4.000000
31.657841 0.970887 4.000000
31.785472 3.424148 4.000000
31.586555 5.414686 4.000000
33.340728 5.478814 4.000000
30.425197 5.555984 4.000000
30.777292 7.619185 4.000000
32.228183 9.929134 4.000000
31.613820 8.914275 4.000000
31.614595 10.101969 4.000000
31.614485 11.224620 4.000000
31.614485 12.347083 4.000000
31.614485 13.469545 4.000000
31.614485 14.592007 4.000000
31.614485 15.714469 4.000000
31.614485 16.836931 4.000000
31.614485 17.959393 4.000000
31.614595 19.082044 4.000000
31.613705 20.269593 4.000000
32.229197 19.255280 4.000000
30.791258 21.603821 4.000000
30.425210 23.627925 4.000000
33.277733 23.774609 4.000000
31.590720 23.923501 4.000000
31.867972 25.823451 4.000000
31.657844 28.213130 4.000000
31.665429 -1.431218 4.000000
30.318998 -2.242314 4.000000
32.318215 3.120223 4.000000
32.618367 3.947357 4.000000
31.951719 5.281184 4.000000
30.769758 7.363310 4.000000
32.156921 7.912191 4.000000
32.140615 8.999457 4.000000
32.374278 10.121334 4.000000
32.363571 11.224620 4.000000
32.363571 12.347083 4.000000
32.363571 13.469545 4.000000
32.363571 14.592007 4.000000
32.363571 15.714469 4.000000
32.363571 16.836931 4.000000
32.363571 17.959393 4.000000
32.374408 19.062238 4.000000
32.139031 20.184636 4.000000
32.156925 21.271859 4.000000
30.720781 21.874410 4.000000
31.881940 23.919270 4.000000
32.694626 24.995352 4.000000
32.297461 25.985057 4.000000
30.318997 31.426327 4.000000
31.665429 30.615231 4.000000
34.154598 4.205832 4.000000
30.298760 3.495789 4.000000
30.573760 1.791964 4.000000
34.002208 4.711396 4.000000
32.335324 6.602176 4.000000
32.025253 6.728214 4.000000
32.941902 7.819607 4.000000
32.940594 8.979871 4.000000
32.940580 10.102154 4.000000
32.940585 11.224620 4.000000
32.940585 12.347083 4.000000
32.940585 13.469545 4.000000
32.940585 14.592007 4.000000
32.940585 15.714469 4.000000
32.940585 16.836931 4.000000
32.940585 17.959393 4.000000
32.940580 19.081859 4.000000
32.940594 20.204142 4.000000
32.941900 21.364388 4.000000
32.007950 22.428386 4.000000
32.185092 22.649506 4.000000
34.280505 24.548076 4.000000
30.574163 27.389655 4.000000
30.294064 25.685316 4.000000
33.982696 24.788518 4.000000
30.928719 -0.852147 4.000000
32.711329 -1.080113 4.000000
35.227004 4.797266 4.000000
32.258263 5.862176 4.000000
34.062746 6.987685 4.000000
33.078784 6.840919 4.000000
33.678991 7.880434 4.000000
33.690113 8.979591 4.000000
33.690218 10.102160 4.000000
33.690220 11.224620 4.000000
33.690220 12.347083 4.000000
33.690220 13.469545 4.000000
33.690220 14.592007 4.000000
33.690220 15.714469 4.000000
33.690220 16.836931 4.000000
33.690220 17.959393 4.000000
33.690218 19.081854 4.000000
33.690113 20.204422 4.000000
33.678994 21.303585 4.000000
33.143184 22.447984 4.000000
34.032220 22.164352 4.000000
32.213701 23.438196 4.000000
35.449502 24.463659 4.000000
32.711431 30.264154 4.000000
30.928718 30.036161 4.000000
31.922576 1.567812 4.000000
36.202330 2.735869 4.000000
31.757933 2.799760 4.000000
32.892309 4.503741 4.000000
33.115293 5.897516 4.000000
34.266296 6.725396 4.000000
34.266936 7.857261 4.000000
34.266933 8.979695 4.000000
34.266933 10.102158 4.000000
34.266933 11.224620 4.000000
34.266933 12.347083 4.000000
34.266933 13.469545 4.000000
34.266933 14.592007 4.000000
34.266933 15.714469 4.000000
34.266933 16.836931 4.000000
34.266933 17.959393 4.000000
34.266933 19.081855 4.000000
34.266933 20.204318 4.000000
34.266936 21.326751 4.000000
34.266462 22.459362 4.000000
33.195700 23.285535 4.000000
32.819554 24.616871 4.000000
31.617389 26.237741 4.000000
36.201770 26.447931 4.000000
31.922999 27.619490 4.000000
37.309912 -3.414998 4.000000
34.670868 4.085411 4.000000
35.653620 2.543279 4.000000
33.927983 5.904261 4.000000
35.928839 5.597370 4.000000
35.013689 6.741082 4.000000
35.017329 7.857210 4.000000
35.017330 8.979697 4.000000
35.017331 10.102158 4.000000
35.017331 11.224620 4.000000
35.017331 12.347083 4.000000
35.017331 13.469545 4.000000
35.017331 14.592007 4.000000
35.017331 15.714469 4.000000
35.017331 16.836931 4.000000
35.017331 17.959393 4.000000
35.017331 19.081855 4.000000
35.017330 20.204317 4.000000
35.017330 21.326804 4.000000
35.014238 22.442490 4.000000
35.926919 23.590350 4.000000
33.932531 23.192063 4.000000
35.652644 26.640253 4.000000
34.572106 25.006587 4.000000
37.309912 32.599011 4.000000
32.859950 3.672126 4.000000
34.170849 2.004602 4.000000
36.406896 3.177369 4.000000
36.311211 5.074468 4.000000
35.873700 5.932792 4.000000
35.584173 6.739974 4.000000
35.593783 7.855948 4.000000
35.593490 8.979696 4.000000
35.593489 10.102158 4.000000
35.593489 11.224620 4.000000
35.593489 12.347083 4.000000
35.593489 13.469545 4.000000
35.593489 14.592007 4.000000
35.593489 15.714469 4.000000
35.593489 16.836931 4.000000
35.593489 17.959393 4.000000
35.593489 19.081855 4.000000
35.593490 20.204318 4.000000
35.593560 21.327955 4.000000
35.584087 22.444054 4.000000
35.872696 23.253053 4.000000
36.360952 24.110423 4.000000
36.373565 26.032306 4.000000
34.170894 27.179234 4.000000
32.957446 25.657368 4.000000
32.123904 1.129171 4.000000
35.026959 -0.819992 4.000000
35.231215 3.138775 4.000000
36.010494 4.527408 4.000000
35.948293 7.839374 4.000000
36.348739 6.731761 4.000000
36.343786 7.855457 4.000000
36.344753 8.979696 4.000000
36.344753 10.102158 4.000000
36.344753 11.224620 4.000000
36.344753 12.347083 4.000000
36.344753 13.469545 4.000000
36.344753 14.592007 4.000000
36.344753 15.714469 4.000000
36.344753 16.836931 4.000000
36.344753 17.959393 4.000000
36.344753 19.081855 4.000000
36.344753 20.204318 4.000000
36.343722 21.328575 4.000000
36.348824 22.452121 4.000000
35.944743 21.344646 4.000000
35.959629 24.653597 4.000000
35.232192 26.044241 4.000000
35.026959 30.004004 4.000000
32.123900 28.054837 4.000000
32.863963 0.850660 4.000000
36.319130 1.858667 4.000000
36.951072 4.690571 4.000000
36.004739 4.240300 4.000000
36.701812 5.413417 4.000000
36.920452 6.738179 4.000000
36.920163 7.857227 4.000000
36.920166 8.979696 4.000000
36.920166 10.102158 4.000000
36.920166 11.224620 4.000000
36.920166 12.347083 4.000000
36.920166 13.469545 4.000000
36.920166 14.592007 4.000000
36.920166 15.714469 4.000000
36.920166 16.836931 4.000000
36.920166 17.959393 4.000000
36.920166 19.081855 4.000000
36.920166 20.204317 4.000000
36.920163 21.326786 4.000000
36.920219 22.445713 4.000000
36.707082 23.767611 4.000000
36.013003 24.926779 4.000000
36.952548 24.492860 4.000000
36.318939 27.325540 4.000000
32.863963 28.333354 4.000000
34.364983 1.123341 4.000000
36.807441 1.330201 4.000000
37.193011 6.565682 4.000000
37.346352 3.874747 4.000000
37.118452 5.613124 4.000000
37.670217 6.731527 4.000000
37.672235 7.857236 4.000000
37.672239 8.979696 4.000000
37.672239 10.102158 4.000000
37.672239 11.224620 4.000000
37.672239 12.347083 4.000000
37.672239 13.469545 4.000000
37.672239 14.592007 4.000000
37.672239 15.714469 4.000000
37.672239 16.836931 4.000000
37.672239 17.959393 4.000000
37.672239 19.081855 4.000000
37.672239 20.204317 4.000000
37.672235 21.326777 4.000000
37.670218 22.452480 4.000000
37.118888 23.571156 4.000000
37.328602 25.290188 4.000000
37.184979 22.607945 4.000000
36.807807 27.853902 4.000000
34.364983 28.060672 4.000000
35.492092 1.126599 4.000000
35.561712 2.006921 4.000000
38.050836 2.532326 4.000000
38.392666 4.924897 4.000000
38.246868 5.614862 4.000000
38.246872 6.734760 4.000000
38.246873 7.857235 4.000000
38.246873 8.979696 4.000000
38.246873 10.102158 4.000000
38.246873 11.224620 4.000000
38.246873 12.347083 4.000000
38.246873 13.469545 4.000000
38.246873 14.592007 4.000000
38.246873 15.714469 4.000000
38.246873 16.836931 4.000000
38.246873 17.959393 4.000000
38.246873 19.081855 4.000000
38.246873 20.204317 4.000000
38.246873 21.326779 4.000000
38.246872 22.449253 4.000000
38.246870 23.569061 4.000000
38.401277 24.276877 4.000000
38.048906 26.650190 4.000000
35.561908 27.177469 4.000000
35.492092 28.057414 4.000000
36.604889 1.089065 4.000000
37.802094 1.873449 4.000000
37.533243 3.451385 4.000000
38.450613 4.456291 4.000000
38.998658 5.610756 4.000000
38.999525 6.734779 4.000000
38.999530 7.857234 4.000000
38.999530 8.979696 4.000000
38.999530 10.102158 4.000000
38.999530 11.224620 4.000000
38.999530 12.347083 4.000000
38.999530 13.469545 4.000000
38.999530 14.592007 4.000000
38.999530 15.714469 4.000000
38.999530 16.836931 4.000000
38.999530 17.959393 4.000000
38.999530 19.081855 4.000000
38.999530 20.204317 4.000000
38.999530 21.326779 4.000000
[...]
POINT_DATA 1250
SCALARS m double
LOOKUP_TABLE default
1.000000
1.000000
1.000000
1.000000
1.000000
1.000000
1.000000
1.000000
1.000000
1.000000
1.000000
1.000000
1.000000
1.000000
1.000000
1.000000
1.000000
1.000000
1.000000
1.000000
1.000000
1.000000
1.000000
1.000000
1.000000
1.000000
1.000000
1.000000
1.000000
1.000000
1.000000
1.000000
1.000000
1.000000
1.000000
1.000000
1.000000
1.000000
1.000000
1.000000
1.000000
1.000000
1.000000
1.000000
1.000000
1.000000
1.000000
1.000000
1.000000
1.000000
1.000000
1.000000
1.000000
1.000000
1.000000
1.000000
1.000000
1.000000
1.000000
1.000000
1.000000
1.000000
1.000000
1.000000
1.000000
1.000000
1.000000
1.000000
1.000000
1.000000
1.000000
1.000000
1.000000
1.000000
1.000000
1.000000
1.000000
1.000000
1.000000
1.000000
1.000000
1.000000
1.000000
1.000000
1.000000
1.000000
1.000000
1.000000
1.000000
1.000000
1.000000
1.000000
1.000000
1.000000
1.000000
1.000000
1.000000
1.000000
1.000000
1.000000
1.000000
1.000000
1.000000
1.000000
1.000000
1.000000
1.000000
1.000000
1.000000
1.000000
1.000000
1.000000
1.000000
1.000000
1.000000
1.000000
1.000000
1.000000
1.000000
1.000000
1.000000
1.000000
1.000000
1.000000
1.000000
1.000000
1.000000
1.000000
1.000000
1.000000
1.000000
1.000000
1.000000
1.000000
1.000000
1.000000
1.000000
1.000000
1.000000
1.000000
1.000000
1.000000
1.000000
1.000000
1.000000
1.000000
1.000000
1.000000
1.000000
1.000000
1.000000
1.000000
1.000000
1.000000
1.000000
1.000000
1.000000
1.000000
1.000000
1.000000
1.000000
1.000000
1.000000
1.000000
1.000000
1.000000
1.000000
1.000000
1.000000
1.000000
1.000000
1.000000
1.000000
1.000000
1.000000
1.000000
1.000000
1.000000
1.000000
1.000000
1.000000
1.000000
1.000000
1.000000
1.000000
1.000000
1.000000
1.000000
1.000000
1.000000
1.000000
1.000000
1.000000
1.000000
1.000000
1.000000
1.000000
1.000000
1.000000
1.000000
1.000000
1.000000
1.000000
1.000000
1.000000
1.000000
1.000000
1.000000
1.000000
1.000000
1.000000
1.000000
1.000000
1.000000
1.000000
1.000000
1.000000
1.000000
1.000000
1.000000
1.000000
1.000000
1.000000
1.000000
1.000000
1.000000
1.000000
1.000000
1.000000
1.000000
1.000000
1.000000
1.000000
1.000000
1.000000
1.000000
1.000000
1.000000
1.000000
1.000000
1.000000
1.000000
1.000000
1.000000
1.000000
1.000000
1.000000
1.000000
1.000000
1.000000
1.000000
1.000000
1.000000
1.000000
1.000000
1.000000
1.000000
1.000000
1.000000
1.000000
1.000000
1.000000
1.000000
1.000000
1.000000
1.000000
1.000000
1.000000
1.000000
1.000000
1.000000
1.000000
1.000000
1.000000
1.000000
1.000000
1.000000
1.000000
1.000000
1.000000
1.000000
1.000000
1.000000
1.000000
1.000000
1.000000
1.000000
1.000000
1.000000
1.000000
1.000000
1.000000
1.000000
1.000000
1.000000
1.000000
1.000000
1.000000
1.000000
1.000000
1.000000
1.000000
1.000000
1.000000
1.000000
1.000000
1.000000
1.000000
1.000000
1.000000
1.000000
1.000000
1.000000
1.000000
1.000000
1.000000
1.000000
1.000000
1.000000
1.000000
1.000000
1.000000
1.000000
1.000000
1.000000
1.000000
1.000000
1.000000
1.000000
1.000000
1.000000
1.000000
1.000000
1.000000
1.000000
1.000000
1.000000
1.000000
1.000000
1.000000
1.000000
1.000000
1.000000
1.000000
1.000000
1.000000
1.000000
1.000000
1.000000
1.000000
1.000000
1.000000
1.000000
1.000000
1.000000
1.000000
1.000000
1.000000
1.000000
1.000000
1.000000
1.000000
1.000000
1.000000
1.000000
1.000000
1.000000
1.000000
1.000000
1.000000
1.000000
1.000000
1.000000
1.000000
1.000000
1.000000
1.000000
1.000000
1.000000
1.000000
1.000000
1.000000
1.000000
1.000000
1.000000
1.000000
1.000000
1.000000
1.000000
1.000000
1.000000
1.000000
1.000000
1.000000
1.000000
1.000000
1.000000
1.000000
1.000000
1.000000
1.000000
1.000000
1.000000
1.000000
1.000000
1.000000
1.000000
1.000000
1.000000
1.000000
1.000000
1.000000
1.000000
1.000000
1.000000
1.000000
1.000000
1.000000
1.000000
1.000000
1.000000
1.000000
1.000000
1.000000
1.000000
1.000000
1.000000
1.000000
1.000000
1.000000
1.000000
1.000000
1.000000
1.000000
1.000000
1.000000
1.000000
1.000000
1.000000
1.000000
1.000000
1.000000
1.000000
1.000000
1.000000
1.000000
1.000000
1.000000
1.000000
1.000000
1.000000
1.000000
1.000000
1.000000
1.000000
1.000000
1.000000
1.000000
1.000000
1.000000
1.000000
1.000000
1.000000
1.000000
1.000000
1.000000
1.000000
1.000000
1.000000
1.000000
1.000000
1.000000
1.000000
1.000000
1.000000
1.000000
1.000000
1.000000
1.000000
1.000000
1.000000
1.000000
1.000000
1.000000
1.000000
1.000000
1.000000
1.000000
1.000000
1.000000
1.000000
1.000000
1.000000
1.000000
1.000000
1.000000
1.000000
1.000000
1.000000
1.000000
1.000000
1.000000
1.000000
1.000000
1.000000
1.000000
1.000000
1.000000
1.000000
1.000000
1.000000
1.000000
1.000000
1.000000
1.000000
1.000000
1.000000
1.000000
1.000000
1.000000
1.000000
1.000000
1.000000
1.000000
1.000000
1.000000
1.000000
1.000000
1.000000
1.000000
1.000000
1.000000
1.000000
1.000000
1.000000
1.000000
1.000000
1.000000
1.000000
1.000000
1.000000
1.000000
1.000000
1.000000
1.000000
1.000000
1.000000
1.000000
1.000000
1.000000
1.000000
1.000000
1.000000
1.000000
1.000000
1.000000
1.000000
1.000000
1.000000
1.000000
1.000000
1.000000
1.000000
1.000000
1.000000
1.000000
1.000000
1.000000
1.000000
1.000000
1.000000
1.000000
1.000000
1.000000
1.000000
1.000000
1.000000
1.000000
1.000000
1.000000
1.000000
1.000000
1.000000
1.000000
1.000000
1.000000
1.000000
1.000000
1.000000
1.000000
1.000000
1.000000
1.000000
1.000000
1.000000
1.000000
1.000000
1.000000
1.000000
1.000000
1.000000
1.000000
1.000000
1.000000
1.000000
1.000000
1.000000
1.000000
1.000000
1.000000
1.000000
1.000000
1.000000
1.000000
1.000000
1.000000
1.000000
1.000000
1.000000
1.000000
1.000000
1.000000
1.000000
1.000000
1.000000
1.000000
1.000000
1.000000
1.000000
1.000000
1.000000
1.000000
1.000000
1.000000
1.000000
1.000000
1.000000
1.000000
1.000000
1.000000
1.000000
1.000000
1.000000
1.000000
1.000000
1.000000
1.000000
1.000000
1.000000
1.000000
1.000000
1.000000
1.000000
1.000000
1.000000
1.000000
1.000000
1.000000
1.000000
1.000000
1.000000
1.000000
1.000000
1.000000
1.000000
1.000000
1.000000
1.000000
1.000000
1.000000
1.000000
1.000000
1.000000
1.000000
1.000000
1.000000
1.000000
1.000000
1.000000
1.000000
1.000000
1.000000
1.000000
1.000000
1.000000
1.000000
1.000000
1.000000
1.000000
1.000000
1.000000
1.000000
1.000000
1.000000
1.000000
1.000000
1.000000
1.000000
1.000000
1.000000
1.000000
1.000000
1.000000
1.000000
1.000000
1.000000
1.000000
1.000000
1.000000
1.000000
1.000000
1.000000
1.000000
1.000000
1.000000
1.000000
1.000000
1.000000
1.000000
1.000000
1.000000
1.000000
1.000000
1.000000
1.000000
1.000000
1.000000
1.000000
1.000000
1.000000
1.000000
1.000000
1.000000
1.000000
1.000000
1.000000
1.000000
1.000000
1.000000
1.000000
1.000000
1.000000
1.000000
1.000000
1.000000
1.000000
1.000000
1.000000
1.000000
1.000000
1.000000
1.000000
1.000000
1.000000
1.000000
1.000000
1.000000
1.000000
1.000000
1.000000
1.000000
1.000000
1.000000
1.000000
1.000000
1.000000
1.000000
1.000000
1.000000
1.000000
1.000000
1.000000
1.000000
1.000000
1.000000
1.000000
1.000000
1.000000
1.000000
1.000000
1.000000
1.000000
1.000000
1.000000
1.000000
1.000000
1.000000
1.000000
1.000000
1.000000
1.000000
1.000000
1.000000
1.000000
1.000000
1.000000
1.000000
1.000000
1.000000
1.000000
1.000000
1.000000
1.000000
1.000000
1.000000
1.000000
1.000000
1.000000
1.000000
1.000000
1.000000
1.000000
1.000000
1.000000
1.000000
1.000000
1.000000
1.000000
1.000000
1.000000
1.000000
1.000000
1.000000
1.000000
1.000000
1.000000
1.000000
1.000000
1.000000
1.000000
1.000000
1.000000
1.000000
1.000000
1.000000
1.000000
1.000000
1.000000
1.000000
1.000000
1.000000
1.000000
1.000000
1.000000
1.000000
1.000000
1.000000
1.000000
1.000000
1.000000
1.000000
1.000000
1.000000
1.000000
1.000000
1.000000
1.000000
1.000000
1.000000
1.000000
1.000000
1.000000
1.000000
1.000000
1.000000
1.000000
1.000000
1.000000
1.000000
1.000000
1.000000
1.000000
1.000000
1.000000
1.000000
1.000000
1.000000
1.000000
1.000000
1.000000
1.000000
1.000000
1.000000
1.000000
1.000000
1.000000
1.000000
1.000000
1.000000
1.000000
1.000000
1.000000
1.000000
1.000000
1.000000
1.000000
1.000000
1.000000
1.000000
1.000000
1.000000
1.000000
1.000000
1.000000
1.000000
1.000000
1.000000
1.000000
1.000000
1.000000
1.000000
1.000000
1.000000
1.000000
1.000000
1.000000
1.000000
1.000000
1.000000
1.000000
1.000000
1.000000
1.000000
1.000000
1.000000
1.000000
1.000000
1.000000
1.000000
1.000000
1.000000
1.000000
1.000000
1.000000
1.000000
1.000000
1.000000
1.000000
1.000000
1.000000
1.000000
1.000000
1.000000
1.000000
1.000000
1.000000
1.000000
1.000000
1.000000
1.000000
1.000000
1.000000
1.000000
1.000000
1.000000
1.000000
1.000000
1.000000
1.000000
1.000000
1.000000
1.000000
1.000000
1.000000
1.000000
1.000000
1.000000
1.000000
1.000000
1.000000
1.000000
1.000000
1.000000
1.000000
1.000000
1.000000
1.000000
1.000000
1.000000
1.000000
1.000000
1.000000
1.000000
1.000000
1.000000
1.000000
1.000000
1.000000
1.000000
1.000000
1.000000
1.000000
1.000000
1.000000
1.000000
1.000000
1.000000
1.000000
1.000000
1.000000
1.000000
1.000000
1.000000
1.000000
1.000000
1.000000
1.000000
1.000000
1.000000
1.000000
1.000000
1.000000
1.000000
1.000000
1.000000
1.000000
1.000000
1.000000
1.000000
1.000000
1.000000
1.000000
1.000000
1.000000
1.000000
1.000000
1.000000
1.000000
1.000000
1.000000
1.000000
1.000000
1.000000
1.000000
1.000000
1.000000
1.000000
1.000000
1.000000
1.000000
1.000000
1.000000
1.000000
1.000000
1.000000
1.000000
1.000000
1.000000
1.000000
1.000000
1.000000
1.000000
1.000000
1.000000
1.000000
1.000000
1.000000
1.000000
1.000000
1.000000
1.000000
1.000000
1.000000
1.000000
1.000000
1.000000
1.000000
1.000000
1.000000
1.000000
1.000000
1.000000
1.000000
1.000000
1.000000
1.000000
1.000000
1.000000
1.000000
1.000000
1.000000
1.000000
1.000000
1.000000
1.000000
1.000000
1.000000
1.000000
1.000000
1.000000
1.000000
1.000000
1.000000
1.000000
1.000000
1.000000
1.000000
1.000000
1.000000
1.000000
1.000000
1.000000
1.000000
1.000000
1.000000
1.000000
1.000000
1.000000
1.000000
1.000000
1.000000
1.000000
1.000000
1.000000
1.000000
1.000000
1.000000
1.000000
1.000000
1.000000
1.000000
1.000000
1.000000
1.000000
1.000000
1.000000
1.000000
1.000000
1.000000
1.000000
1.000000
1.000000
1.000000
1.000000
1.000000
1.000000
1.000000
1.000000
1.000000
1.000000
1.000000
1.000000
1.000000
1.000000
1.000000
1.000000
1.000000
1.000000
1.000000
1.000000
1.000000
1.000000
1.000000
1.000000
1.000000
1.000000
1.000000
1.000000
1.000000
1.000000
1.000000
1.000000
1.000000
1.000000
1.000000
1.000000
1.000000
1.000000
1.000000
1.000000
1.000000
1.000000
1.000000
1.000000
1.000000
1.000000
1.000000
1.000000
1.000000
1.000000
1.000000
1.000000
1.000000
1.000000
1.000000
1.000000
1.000000
1.000000
1.000000
1.000000
1.000000
1.000000
1.000000
1.000000
1.000000
1.000000
1.000000
1.000000
1.000000
1.000000
1.000000
1.000000
1.000000
1.000000
1.000000
1.000000
1.000000
1.000000
1.000000
1.000000
1.000000
1.000000
1.000000
1.000000
1.000000
1.000000
1.000000
1.000000
1.000000
1.000000
1.000000
1.000000
1.000000
1.000000
1.000000
1.000000
1.000000
1.000000
1.000000
1.000000
1.000000
1.000000
1.000000
1.000000
1.000000
1.000000
1.000000
1.000000
1.000000
1.000000
1.000000
1.000000
1.000000
1.000000
1.000000
1.000000
1.000000
1.000000
1.000000
1.000000
VECTORS v double
3.522278 7.538054 0.000000
-6.482279 -7.928192 0.000000
9.312035 10.485100 0.000000
-10.112591 -1.255296 0.000000
5.944802 -6.205538 0.000000
-2.248566 9.093543 0.000000
1.485384 13.584342 0.000000
-9.999096 -0.013337 0.000000
-10.004219 0.000047 0.000000
-10.004263 0.000000 0.000000
-10.004265 0.000000 0.000000
-10.004265 0.000000 0.000000
-10.004265 -0.000000 0.000000
-10.004265 -0.000000 0.000000
-10.004265 -0.000000 0.000000
-10.004263 -0.000000 0.000000
-10.004219 -0.000047 0.000000
-9.999090 0.013346 0.000000
1.303543 -13.554178 0.000000
-2.235592 -9.099890 0.000000
5.908018 6.232150 0.000000
-9.483623 3.971920 0.000000
6.500519 -11.840033 0.000000
-6.573758 8.593647 0.000000
3.521416 -7.538094 0.000000
-2.631363 -13.726701 0.000000
8.132632 -2.631495 0.000000
5.475114 -9.791390 0.000000
10.109593 1.540555 0.000000
0.375090 2.141906 0.000000
-2.667409 -4.832890 0.000000
-9.756486 -2.174643 0.000000
10.002050 0.014814 0.000000
10.002285 -0.000113 0.000000
10.002214 -0.000006 0.000000
10.002211 0.000000 0.000000
10.002211 0.000000 0.000000
10.002211 -0.000000 0.000000
10.002211 -0.000000 0.000000
10.002211 -0.000000 0.000000
10.002214 0.000006 0.000000
10.002284 0.000113 0.000000
10.002059 -0.014832 0.000000
-9.756783 2.172856 0.000000
-2.610444 4.826194 0.000000
2.095581 -3.806284 0.000000
10.119557 -1.462329 0.000000
5.483233 9.782888 0.000000
8.132623 2.631501 0.000000
-2.631363 13.726701 0.000000
9.322787 0.081467 0.000000
3.911924 9.644768 0.000000
0.955643 6.466044 0.000000
6.285786 -3.342611 0.000000
10.000934 -0.267086 0.000000
2.616806 11.859868 0.000000
0.677883 9.890015 0.000000
-9.701910 -2.085352 0.000000
-9.995760 -0.011478 0.000000
-10.006596 -0.000023 0.000000
-10.006602 -0.000000 0.000000
-10.006602 0.000000 0.000000
-10.006602 -0.000000 0.000000
-10.006602 -0.000000 0.000000
-10.006602 0.000000 0.000000
-10.006596 0.000023 0.000000
-9.995831 0.011413 0.000000
-9.702784 2.083055 0.000000
0.674467 -9.731992 0.000000
4.772028 2.949347 0.000000
10.001014 0.266554 0.000000
3.014251 6.993946 0.000000
-1.759176 -4.484515 0.000000
8.842464 -4.904831 0.000000
9.322884 -0.081486 0.000000
-0.497057 -3.683487 0.000000
-6.838222 -10.619347 0.000000
-4.750199 -5.484488 0.000000
6.167509 -2.749134 0.000000
2.942345 -10.209329 0.000000
-10.379499 -4.051389 0.000000
9.786385 2.300958 0.000000
5.069211 1.104474 0.000000
15.752053 9.450166 0.000000
10.001218 -0.000034 0.000000
10.001220 -0.000000 0.000000
10.001220 0.000000 0.000000
10.001220 -0.000000 0.000000
10.001220 -0.000000 0.000000
10.001220 0.000000 0.000000
10.001218 0.000034 0.000000
15.783848 -9.607624 0.000000
5.036838 -1.103719 0.000000
9.786787 -2.299258 0.000000
-13.088754 -9.239623 0.000000
4.690302 9.633712 0.000000
6.681012 -1.215536 0.000000
-4.896587 4.999799 0.000000
-6.838227 10.619345 0.000000
-0.497056 3.683488 0.000000
1.833443 -10.355841 0.000000
8.205277 4.306438 0.000000
-8.757778 -4.922603 0.000000
-2.841036 11.628764 0.000000
-6.542251 8.127006 0.000000
-9.907303 -0.189875 0.000000
-9.956654 -1.066690 0.000000
-10.005425 0.005003 0.000000
-10.009426 -0.000320 0.000000
-10.008434 -0.000012 0.000000
-10.008429 -0.000000 0.000000
-10.008429 0.000000 0.000000
-10.008429 -0.000000 0.000000
-10.008429 -0.000000 0.000000
-10.008429 0.000000 0.000000
-10.008434 0.000012 0.000000
-10.009434 0.000321 0.000000
-10.005418 -0.005002 0.000000
-9.956697 1.066064 0.000000
-12.553734 -4.005577 0.000000
-5.186285 -3.579786 0.000000
10.974626 -2.517644 0.000000
-8.757379 4.903546 0.000000
8.120095 -4.330891 0.000000
-11.163321 0.428001 0.000000
-1.124690 -6.326228 0.000000
-1.993149 -10.927181 0.000000
5.654344 9.608617 0.000000
-7.758815 10.540915 0.000000
4.305348 8.897653 0.000000
-11.215230 1.947688 0.000000
9.863297 0.868291 0.000000
10.000129 -0.003910 0.000000
10.001559 0.000040 0.000000
10.001619 -0.000002 0.000000
10.001622 0.000000 0.000000
10.001622 0.000000 0.000000
10.001622 -0.000000 0.000000
10.001622 -0.000000 0.000000
10.001622 -0.000000 0.000000
10.001619 0.000002 0.000000
10.001559 -0.000039 0.000000
10.000131 0.003908 0.000000
9.863390 -0.868042 0.000000
-10.004013 -0.028848 0.000000
3.379204 -10.282635 0.000000
-7.860213 -10.118385 0.000000
9.362237 -6.872050 0.000000
-1.992713 10.927305 0.000000
-1.124694 6.326231 0.000000
-0.148825 -4.365238 0.000000
1.411602 3.438361 0.000000
-3.267005 -9.053866 0.000000
10.480722 0.771715 0.000000
-12.129678 7.598444 0.000000
-10.086753 -0.242097 0.000000
-10.008924 0.000606 0.000000
-10.009292 -0.000030 0.000000
-10.009299 0.000000 0.000000
-10.009298 -0.000000 0.000000
-10.009298 0.000000 0.000000
-10.009298 0.000000 0.000000
-10.009298 -0.000000 0.000000
-10.009298 -0.000000 0.000000
-10.009298 -0.000000 0.000000
-10.009298 0.000000 0.000000
-10.009299 -0.000000 0.000000
-10.009291 0.000029 0.000000
-10.008941 -0.000604 0.000000
-10.096191 0.242448 0.000000
-8.693751 -10.101616 0.000000
9.144971 -3.310481 0.000000
-8.916119 3.278490 0.000000
1.408931 -3.453335 0.000000
-0.145711 4.387719 0.000000
4.837053 -9.997753 0.000000
-5.223169 -7.755410 0.000000
1.738694 -3.411693 0.000000
-4.729075 6.365047 0.000000
9.316922 -1.882068 0.000000
9.930592 0.227708 0.000000
10.003375 -0.000906 0.000000
10.003166 0.000007 0.000000
10.003167 -0.000000 0.000000
10.003167 0.000000 0.000000
10.003167 0.000000 0.000000
10.003167 0.000000 0.000000
10.003167 -0.000000 0.000000
10.003167 -0.000000 0.000000
10.003167 -0.000000 0.000000
10.003167 -0.000000 0.000000
10.003167 0.000000 0.000000
10.003166 -0.000006 0.000000
10.003393 0.000924 0.000000
9.939261 -0.243834 0.000000
9.161633 2.196099 0.000000
-4.962109 -7.329433 0.000000
1.734723 3.409123 0.000000
-8.090917 5.094289 0.000000
4.837053 9.997753 0.000000
-3.245813 -3.929225 0.000000
-9.863850 -1.576013 0.000000
6.364768 -7.070033 0.000000
7.306721 5.667589 0.000000
-7.865995 6.927892 0.000000
-10.180994 0.173538 0.000000
-10.010615 -0.050338 0.000000
-10.009182 -0.000059 0.000000
-10.009193 -0.000000 0.000000
-10.009193 0.000000 0.000000
-10.009193 0.000000 0.000000
-10.009193 0.000000 0.000000
-10.009193 -0.000000 0.000000
-10.009193 -0.000000 0.000000
-10.009193 -0.000000 0.000000
-10.009193 -0.000000 0.000000
-10.009193 0.000000 0.000000
-10.009182 0.000060 0.000000
-10.044025 0.035164 0.000000
-10.182931 -0.172359 0.000000
-7.768136 -7.150862 0.000000
8.580513 -5.288609 0.000000
6.173748 7.229348 0.000000
-9.863548 1.574937 0.000000
0.443837 8.121182 0.000000
-10.014761 0.056996 0.000000
-3.933247 -8.257656 0.000000
2.679260 -3.375529 0.000000
0.641123 -0.380870 0.000000
-1.212881 17.793332 0.000000
10.089061 -0.078209 0.000000
9.900017 -0.102123 0.000000
10.005211 -0.000059 0.000000
10.005222 -0.000000 0.000000
10.005222 0.000000 0.000000
10.005222 0.000000 0.000000
10.005222 0.000000 0.000000
10.005222 -0.000000 0.000000
10.005222 -0.000000 0.000000
10.005222 -0.000000 0.000000
10.005222 -0.000000 0.000000
10.005222 0.000000 0.000000
10.005211 0.000059 0.000000
9.893361 0.104956 0.000000
10.090775 0.074976 0.000000
-1.204407 -17.778470 0.000000
0.145986 5.174602 0.000000
2.688961 3.367198 0.000000
-3.933245 8.257652 0.000000
-10.015229 -0.057692 0.000000
-11.496855 -1.067458 0.000000
-9.980853 -1.108078 0.000000
-4.828176 8.592581 0.000000
-7.148285 -7.956190 0.000000
4.310441 -4.073869 0.000000
-10.004098 0.066464 0.000000
-10.008634 -0.000254 0.000000
-10.008407 -0.000015 0.000000
-10.008399 -0.000000 0.000000
-10.008399 0.000000 0.000000
-10.008399 0.000000 0.000000
-10.008399 0.000000 0.000000
-10.008399 -0.000000 0.000000
-10.008399 -0.000000 0.000000
-10.008399 -0.000000 0.000000
-10.008399 -0.000000 0.000000
-10.008399 0.000000 0.000000
-10.008407 0.000015 0.000000
-10.008626 0.000253 0.000000
-10.094425 -0.138512 0.000000
4.385254 4.006656 0.000000
-7.927788 2.448561 0.000000
-4.813384 -8.595039 0.000000
-9.984987 1.113474 0.000000
-11.496859 1.067462 0.000000
-10.030398 -0.002178 0.000000
6.303626 -4.807243 0.000000
-0.724927 15.832540 0.000000
-7.159765 -7.129749 0.000000
-10.139091 0.038968 0.000000
9.952731 -0.134445 0.000000
10.007021 0.000062 0.000000
10.007127 0.000001 0.000000
10.007131 0.000000 0.000000
10.007131 0.000000 0.000000
10.007131 0.000000 0.000000
10.007131 0.000000 0.000000
10.007131 -0.000000 0.000000
10.007131 -0.000000 0.000000
10.007131 -0.000000 0.000000
10.007131 -0.000000 0.000000
10.007131 -0.000000 0.000000
10.007127 -0.000001 0.000000
10.007022 -0.000060 0.000000
9.952320 0.133676 0.000000
-10.131021 -0.031717 0.000000
-7.380613 6.907599 0.000000
-0.702532 -15.844757 0.000000
6.306851 4.826724 0.000000
-10.030397 0.002180 0.000000
-9.997684 0.015273 0.000000
-8.970449 -3.450814 0.000000