# vtk DataFile Version 4.0
hesp visualization file
ASCII
DATASET UNSTRUCTURED_GRID
POINTS 1250 double
30.540043 1.122573 4.000000
30.540042 2.244925 4.000000
30.540042 3.367386 4.000000
30.540042 4.489848 4.000000
30.540042 5.612310 4.000000
30.540042 6.734772 4.000000
30.540042 7.857234 4.000000
30.540042 8.979696 4.000000
30.540042 10.102158 4.000000
30.540042 11.224620 4.000000
30.540042 12.347083 4.000000
30.540042 13.469545 4.000000
30.540042 14.592007 4.000000
30.540042 15.714469 4.000000
30.540042 16.836931 4.000000
30.540042 17.959393 4.000000
30.540042 19.081855 4.000000
30.540042 20.204317 4.000000
30.540042 21.326779 4.000000
30.540042 22.449241 4.000000
30.540042 23.571703 4.000000
30.540042 24.694165 4.000000
30.540042 25.816627 4.000000
30.540042 26.939088 4.000000
30.540043 28.061440 4.000000
30.786442 1.122562 4.000000
30.786442 2.244925 4.000000
30.786442 3.367386 4.000000
30.786442 4.489848 4.000000
30.786442 5.612310 4.000000
30.786442 6.734772 4.000000
30.786442 7.857234 4.000000
30.786442 8.979696 4.000000
30.786442 10.102158 4.000000
30.786442 11.224620 4.000000
30.786442 12.347083 4.000000
30.786442 13.469545 4.000000
30.786442 14.592007 4.000000
30.786442 15.714469 4.000000
30.786442 16.836931 4.000000
30.786442 17.959393 4.000000
30.786442 19.081855 4.000000
30.786442 20.204317 4.000000
30.786442 21.326779 4.000000
30.786442 22.449241 4.000000
30.786442 23.571703 4.000000
30.786442 24.694165 4.000000
30.786442 25.816627 4.000000
30.786442 26.939088 4.000000
30.786442 28.061451 4.000000
31.867386 1.122561 4.000000
31.867386 2.244925 4.000000
31.867386 3.367386 4.000000
31.867386 4.489848 4.000000
31.867386 5.612310 4.000000
31.867386 6.734772 4.000000
31.867386 7.857234 4.000000
31.867386 8.979696 4.000000
31.867386 10.102158 4.000000
31.867386 11.224620 4.000000
31.867386 12.347083 4.000000
31.867386 13.469545 4.000000
31.867386 14.592007 4.000000
31.867386 15.714469 4.000000
31.867386 16.836931 4.000000
31.867386 17.959393 4.000000
31.867386 19.081855 4.000000
31.867386 20.204317 4.000000
31.867386 21.326779 4.000000
31.867386 22.449241 4.000000
31.867386 23.571703 4.000000
31.867386 24.694165 4.000000
31.867386 25.816627 4.000000
31.867386 26.939088 4.000000
31.867386 28.061452 4.000000
32.989848 1.122561 4.000000
32.989848 2.244925 4.000000
32.989848 3.367386 4.000000
32.989848 4.489848 4.000000
32.989848 5.612310 4.000000
32.989848 6.734772 4.000000
32.989848 7.857234 4.000000
32.989848 8.979696 4.000000
32.989848 10.102158 4.000000
32.989848 11.224620 4.000000
32.989848 12.347083 4.000000
32.989848 13.469545 4.000000
32.989848 14.592007 4.000000
32.989848 15.714469 4.000000
32.989848 16.836931 4.000000
32.989848 17.959393 4.000000
32.989848 19.081855 4.000000
32.989848 20.204317 4.000000
32.989848 21.326779 4.000000
32.989848 22.449241 4.000000
32.989848 23.571703 4.000000
32.989848 24.694165 4.000000
32.989848 25.816627 4.000000
32.989848 26.939088 4.000000
32.989848 28.061452 4.000000
34.112310 1.122561 4.000000
34.112310 2.244925 4.000000
34.112310 3.367386 4.000000
34.112310 4.489848 4.000000
34.112310 5.612310 4.000000
34.112310 6.734772 4.000000
34.112310 7.857234 4.000000
34.112310 8.979696 4.000000
34.112310 10.102158 4.000000
34.112310 11.224620 4.000000
34.112310 12.347083 4.000000
34.112310 13.469545 4.000000
34.112310 14.592007 4.000000
34.112310 15.714469 4.000000
34.112310 16.836931 4.000000
34.112310 17.959393 4.000000
34.112310 19.081855 4.000000
34.112310 20.204317 4.000000
34.112310 21.326779 4.000000
34.112310 22.449241 4.000000
34.112310 23.571703 4.000000
34.112310 24.694165 4.000000
34.112310 25.816627 4.000000
34.112310 26.939088 4.000000
34.112310 28.061452 4.000000
35.234772 1.122561 4.000000
35.234772 2.244925 4.000000
35.234772 3.367386 4.000000
35.234772 4.489848 4.000000
35.234772 5.612310 4.000000
35.234772 6.734772 4.000000
35.234772 7.857234 4.000000
35.234772 8.979696 4.000000
35.234772 10.102158 4.000000
35.234772 11.224620 4.000000
35.234772 12.347083 4.000000
35.234772 13.469545 4.000000
35.234772 14.592007 4.000000
35.234772 15.714469 4.000000
35.234772 16.836931 4.000000
35.234772 17.959393 4.000000
35.234772 19.081855 4.000000
35.234772 20.204317 4.000000
35.234772 21.326779 4.000000
35.234772 22.449241 4.000000
35.234772 23.571703 4.000000
35.234772 24.694165 4.000000
35.234772 25.816627 4.000000
35.234772 26.939088 4.000000
35.234772 28.061452 4.000000
36.357234 1.122561 4.000000
36.357234 2.244925 4.000000
36.357234 3.367386 4.000000
36.357234 4.489848 4.000000
36.357234 5.612310 4.000000
36.357234 6.734772 4.000000
36.357234 7.857234 4.000000
36.357234 8.979696 4.000000
36.357234 10.102158 4.000000
36.357234 11.224620 4.000000
36.357234 12.347083 4.000000
36.357234 13.469545 4.000000
36.357234 14.592007 4.000000
36.357234 15.714469 4.000000
36.357234 16.836931 4.000000
36.357234 17.959393 4.000000
36.357234 19.081855 4.000000
36.357234 20.204317 4.000000
36.357234 21.326779 4.000000
36.357234 22.449241 4.000000
36.357234 23.571703 4.000000
36.357234 24.694165 4.000000
36.357234 25.816627 4.000000
36.357234 26.939088 4.000000
36.357234 28.061452 4.000000
37.479696 1.122561 4.000000
37.479696 2.244925 4.000000
37.479696 3.367386 4.000000
37.479696 4.489848 4.000000
37.479696 5.612310 4.000000
37.479696 6.734772 4.000000
37.479696 7.857234 4.000000
37.479696 8.979696 4.000000
37.479696 10.102158 4.000000
37.479696 11.224620 4.000000
37.479696 12.347083 4.000000
37.479696 13.469545 4.000000
37.479696 14.592007 4.000000
37.479696 15.714469 4.000000
37.479696 16.836931 4.000000
37.479696 17.959393 4.000000
37.479696 19.081855 4.000000
37.479696 20.204317 4.000000
37.479696 21.326779 4.000000
37.479696 22.449241 4.000000
37.479696 23.571703 4.000000
37.479696 24.694165 4.000000
37.479696 25.816627 4.000000
37.479696 26.939088 4.000000
37.479696 28.061452 4.000000
38.602158 1.122561 4.000000
38.602158 2.244925 4.000000
38.602158 3.367386 4.000000
38.602158 4.489848 4.000000
38.602158 5.612310 4.000000
38.602158 6.734772 4.000000
38.602158 7.857234 4.000000
38.602158 8.979696 4.000000
38.602158 10.102158 4.000000
38.602158 11.224620 4.000000
38.602158 12.347083 4.000000
38.602158 13.469545 4.000000
38.602158 14.592007 4.000000
38.602158 15.714469 4.000000
38.602158 16.836931 4.000000
38.602158 17.959393 4.000000
38.602158 19.081855 4.000000
38.602158 20.204317 4.000000
38.602158 21.326779 4.000000
38.602158 22.449241 4.000000
38.602158 23.571703 4.000000
38.602158 24.694165 4.000000
38.602158 25.816627 4.000000
38.602158 26.939088 4.000000
38.602158 28.061452 4.000000
39.724620 1.122561 4.000000
39.724620 2.244925 4.000000
39.724620 3.367386 4.000000
39.724620 4.489848 4.000000
39.724620 5.612310 4.000000
39.724620 6.734772 4.000000
39.724620 7.857234 4.000000
39.724620 8.979696 4.000000
39.724620 10.102158 4.000000
39.724620 11.224620 4.000000
39.724620 12.347083 4.000000
39.724620 13.469545 4.000000
39.724620 14.592007 4.000000
39.724620 15.714469 4.000000
39.724620 16.836931 4.000000
39.724620 17.959393 4.000000
39.724620 19.081855 4.000000
39.724620 20.204317 4.000000
39.724620 21.326779 4.000000
39.724620 22.449241 4.000000
39.724620 23.571703 4.000000
39.724620 24.694165 4.000000
39.724620 25.816627 4.000000
39.724620 26.939088 4.000000
39.724620 28.061452 4.000000
40.847083 1.122561 4.000000
40.847083 2.244925 4.000000
40.847083 3.367386 4.000000
40.847083 4.489848 4.000000
40.847083 5.612310 4.000000
40.847083 6.734772 4.000000
40.847083 7.857234 4.000000
40.847083 8.979696 4.000000
40.847083 10.102158 4.000000
40.847083 11.224620 4.000000
40.847083 12.347083 4.000000
40.847083 13.469545 4.000000
40.847083 14.592007 4.000000
40.847083 15.714469 4.000000
40.847083 16.836931 4.000000
40.847083 17.959393 4.000000
40.847083 19.081855 4.000000
40.847083 20.204317 4.000000
40.847083 21.326779 4.000000
40.847083 22.449241 4.000000
40.847083 23.571703 4.000000
40.847083 24.694165 4.000000
40.847083 25.816627 4.000000
40.847083 26.939088 4.000000
40.847083 28.061452 4.000000
41.969545 1.122561 4.000000
41.969545 2.244925 4.000000
41.969545 3.367386 4.000000
41.969545 4.489848 4.000000
41.969545 5.612310 4.000000
41.969545 6.734772 4.000000
41.969545 7.857234 4.000000
41.969545 8.979696 4.000000
41.969545 10.102158 4.000000
41.969545 11.224620 4.000000
41.969545 12.347083 4.000000
41.969545 13.469545 4.000000
41.969545 14.592007 4.000000
41.969545 15.714469 4.000000
41.969545 16.836931 4.000000
41.969545 17.959393 4.000000
41.969545 19.081855 4.000000
41.969545 20.204317 4.000000
41.969545 21.326779 4.000000
41.969545 22.449241 4.000000
41.969545 23.571703 4.000000
41.969545 24.694165 4.000000
41.969545 25.816627 4.000000
41.969545 26.939088 4.000000
41.969545 28.061452 4.000000
43.092007 1.122561 4.000000
43.092007 2.244925 4.000000
43.092007 3.367386 4.000000
43.092007 4.489848 4.000000
43.092007 5.612310 4.000000
43.092007 6.734772 4.000000
43.092007 7.857234 4.000000
43.092007 8.979696 4.000000
43.092007 10.102158 4.000000
43.092007 11.224620 4.000000
43.092007 12.347083 4.000000
43.092007 13.469545 4.000000
43.092007 14.592007 4.000000
43.092007 15.714469 4.000000
43.092007 16.836931 4.000000
43.092007 17.959393 4.000000
43.092007 19.081855 4.000000
43.092007 20.204317 4.000000
43.092007 21.326779 4.000000
43.092007 22.449241 4.000000
43.092007 23.571703 4.000000
43.092007 24.694165 4.000000
43.092007 25.816627 4.000000
43.092007 26.939088 4.000000
43.092007 28.061452 4.000000
44.214469 1.122561 4.000000
44.214469 2.244925 4.000000
44.214469 3.367386 4.000000
44.214469 4.489848 4.000000
44.214469 5.612310 4.000000
44.214469 6.734772 4.000000
44.214469 7.857234 4.000000
44.214469 8.979696 4.000000
44.214469 10.102158 4.000000
44.214469 11.224620 4.000000
44.214469 12.347083 4.000000
44.214469 13.469545 4.000000
44.214469 14.592007 4.000000
44.214469 15.714469 4.000000
44.214469 16.836931 4.000000
44.214469 17.959393 4.000000
44.214469 19.081855 4.000000
44.214469 20.204317 4.000000
44.214469 21.326779 4.000000
44.214469 22.449241 4.000000
[...]
POINT_DATA 1250
SCALARS m double
LOOKUP_TABLE default
1.000000
1.000000
1.000000
1.000000
1.000000
1.000000
1.000000
1.000000
1.000000
1.000000
1.000000
1.000000
1.000000
1.000000
1.000000
1.000000
1.000000
1.000000
1.000000
1.000000
1.000000
1.000000
1.000000
1.000000
1.000000
1.000000
1.000000
1.000000
1.000000
1.000000
1.000000
1.000000
1.000000
1.000000
1.000000
1.000000
1.000000
1.000000
1.000000
1.000000
1.000000
1.000000
1.000000
1.000000
1.000000
1.000000
1.000000
1.000000
1.000000
1.000000
1.000000
1.000000
1.000000
1.000000
1.000000
1.000000
1.000000
1.000000
1.000000
1.000000
1.000000
1.000000
1.000000
1.000000
1.000000
1.000000
1.000000
1.000000
1.000000
1.000000
1.000000
1.000000
1.000000
1.000000
1.000000
1.000000
1.000000
1.000000
1.000000
1.000000
1.000000
1.000000
1.000000
1.000000
1.000000
1.000000
1.000000
1.000000
1.000000
1.000000
1.000000
1.000000
1.000000
1.000000
1.000000
1.000000
1.000000
1.000000
1.000000
1.000000
1.000000
1.000000
1.000000
1.000000
1.000000
1.000000
1.000000
1.000000
1.000000
1.000000
1.000000
1.000000
1.000000
1.000000
1.000000
1.000000
1.000000
1.000000
1.000000
1.000000
1.000000
1.000000
1.000000
1.000000
1.000000
1.000000
1.000000
1.000000
1.000000
1.000000
1.000000
1.000000
1.000000
1.000000
1.000000
1.000000
1.000000
1.000000
1.000000
1.000000
1.000000
1.000000
1.000000
1.000000
1.000000
1.000000
1.000000
1.000000
1.000000
1.000000
1.000000
1.000000
1.000000
1.000000
1.000000
1.000000
1.000000
1.000000
1.000000
1.000000
1.000000
1.000000
1.000000
1.000000
1.000000
1.000000
1.000000
1.000000
1.000000
1.000000
1.000000
1.000000
1.000000
1.000000
1.000000
1.000000
1.000000
1.000000
1.000000
1.000000
1.000000
1.000000
1.000000
1.000000
1.000000
1.000000
1.000000
1.000000
1.000000
1.000000
1.000000
1.000000
1.000000
1.000000
1.000000
1.000000
1.000000
1.000000
1.000000
1.000000
1.000000
1.000000
1.000000
1.000000
1.000000
1.000000
1.000000
1.000000
1.000000
1.000000
1.000000
1.000000
1.000000
1.000000
1.000000
1.000000
1.000000
1.000000
1.000000
1.000000
1.000000
1.000000
1.000000
1.000000
1.000000
1.000000
1.000000
1.000000
1.000000
1.000000
1.000000
1.000000
1.000000
1.000000
1.000000
1.000000
1.000000
1.000000
1.000000
1.000000
1.000000
1.000000
1.000000
1.000000
1.000000
1.000000
1.000000
1.000000
1.000000
1.000000
1.000000
1.000000
1.000000
1.000000
1.000000
1.000000
1.000000
1.000000
1.000000
1.000000
1.000000
1.000000
1.000000
1.000000
1.000000
1.000000
1.000000
1.000000
1.000000
1.000000
1.000000
1.000000
1.000000
1.000000
1.000000
1.000000
1.000000
1.000000
1.000000
1.000000
1.000000
1.000000
1.000000
1.000000
1.000000
1.000000
1.000000
1.000000
1.000000
1.000000
1.000000
1.000000
1.000000
1.000000
1.000000
1.000000
1.000000
1.000000
1.000000
1.000000
1.000000
1.000000
1.000000
1.000000
1.000000
1.000000
1.000000
1.000000
1.000000
1.000000
1.000000
1.000000
1.000000
1.000000
1.000000
1.000000
1.000000
1.000000
1.000000
1.000000
1.000000
1.000000
1.000000
1.000000
1.000000
1.000000
1.000000
1.000000
1.000000
1.000000
1.000000
1.000000
1.000000
1.000000
1.000000
1.000000
1.000000
1.000000
1.000000
1.000000
1.000000
1.000000
1.000000
1.000000
1.000000
1.000000
1.000000
1.000000
1.000000
1.000000
1.000000
1.000000
1.000000
1.000000
1.000000
1.000000
1.000000
1.000000
1.000000
1.000000
1.000000
1.000000
1.000000
1.000000
1.000000
1.000000
1.000000
1.000000
1.000000
1.000000
1.000000
1.000000
1.000000
1.000000
1.000000
1.000000
1.000000
1.000000
1.000000
1.000000
1.000000
1.000000
1.000000
1.000000
1.000000
1.000000
1.000000
1.000000
1.000000
1.000000
1.000000
1.000000
1.000000
1.000000
1.000000
1.000000
1.000000
1.000000
1.000000
1.000000
1.000000
1.000000
1.000000
1.000000
1.000000
1.000000
1.000000
1.000000
1.000000
1.000000
1.000000
1.000000
1.000000
1.000000
1.000000
1.000000
1.000000
1.000000
1.000000
1.000000
1.000000
1.000000
1.000000
1.000000
1.000000
1.000000
1.000000
1.000000
1.000000
1.000000
1.000000
1.000000
1.000000
1.000000
1.000000
1.000000
1.000000
1.000000
1.000000
1.000000
1.000000
1.000000
1.000000
1.000000
1.000000
1.000000
1.000000
1.000000
1.000000
1.000000
1.000000
1.000000
1.000000
1.000000
1.000000
1.000000
1.000000
1.000000
1.000000
1.000000
1.000000
1.000000
1.000000
1.000000
1.000000
1.000000
1.000000
1.000000
1.000000
1.000000
1.000000
1.000000
1.000000
1.000000
1.000000
1.000000
1.000000
1.000000
1.000000
1.000000
1.000000
1.000000
1.000000
1.000000
1.000000
1.000000
1.000000
1.000000
1.000000
1.000000
1.000000
1.000000
1.000000
1.000000
1.000000
1.000000
1.000000
1.000000
1.000000
1.000000
1.000000
1.000000
1.000000
1.000000
1.000000
1.000000
1.000000
1.000000
1.000000
1.000000
1.000000
1.000000
1.000000
1.000000
1.000000
1.000000
1.000000
1.000000
1.000000
1.000000
1.000000
1.000000
1.000000
1.000000
1.000000
1.000000
1.000000
1.000000
1.000000
1.000000
1.000000
1.000000
1.000000
1.000000
1.000000
1.000000
1.000000
1.000000
1.000000
1.000000
1.000000
1.000000
1.000000
1.000000
1.000000
1.000000
1.000000
1.000000
1.000000
1.000000
1.000000
1.000000
1.000000
1.000000
1.000000
1.000000
1.000000
1.000000
1.000000
1.000000
1.000000
1.000000
1.000000
1.000000
1.000000
1.000000
1.000000
1.000000
1.000000
1.000000
1.000000
1.000000
1.000000
1.000000
1.000000
1.000000
1.000000
1.000000
1.000000
1.000000
1.000000
1.000000
1.000000
1.000000
1.000000
1.000000
1.000000
1.000000
1.000000
1.000000
1.000000
1.000000
1.000000
1.000000
1.000000
1.000000
1.000000
1.000000
1.000000
1.000000
1.000000
1.000000
1.000000
1.000000
1.000000
1.000000
1.000000
1.000000
1.000000
1.000000
1.000000
1.000000
1.000000
1.000000
1.000000
1.000000
1.000000
1.000000
1.000000
1.000000
1.000000
1.000000
1.000000
1.000000
1.000000
1.000000
1.000000
1.000000
1.000000
1.000000
1.000000
1.000000
1.000000
1.000000
1.000000
1.000000
1.000000
1.000000
1.000000
1.000000
1.000000
1.000000
1.000000
1.000000
1.000000
1.000000
1.000000
1.000000
1.000000
1.000000
1.000000
1.000000
1.000000
1.000000
1.000000
1.000000
1.000000
1.000000
1.000000
1.000000
1.000000
1.000000
1.000000
1.000000
1.000000
1.000000
1.000000
1.000000
1.000000
1.000000
1.000000
1.000000
1.000000
1.000000
1.000000
1.000000
1.000000
1.000000
1.000000
1.000000
1.000000
1.000000
1.000000
1.000000
1.000000
1.000000
1.000000
1.000000
1.000000
1.000000
1.000000
1.000000
1.000000
1.000000
1.000000
1.000000
1.000000
1.000000
1.000000
1.000000
1.000000
1.000000
1.000000
1.000000
1.000000
1.000000
1.000000
1.000000
1.000000
1.000000
1.000000
1.000000
1.000000
1.000000
1.000000
1.000000
1.000000
1.000000
1.000000
1.000000
1.000000
1.000000
1.000000
1.000000
1.000000
1.000000
1.000000
1.000000
1.000000
1.000000
1.000000
1.000000
1.000000
1.000000
1.000000
1.000000
1.000000
1.000000
1.000000
1.000000
1.000000
1.000000
1.000000
1.000000
1.000000
1.000000
1.000000
1.000000
1.000000
1.000000
1.000000
1.000000
1.000000
1.000000
1.000000
1.000000
1.000000
1.000000
1.000000
1.000000
1.000000
1.000000
1.000000
1.000000
1.000000
1.000000
1.000000
1.000000
1.000000
1.000000
1.000000
1.000000
1.000000
1.000000
1.000000
1.000000
1.000000
1.000000
1.000000
1.000000
1.000000
1.000000
1.000000
1.000000
1.000000
1.000000
1.000000
1.000000
1.000000
1.000000
1.000000
1.000000
1.000000
1.000000
1.000000
1.000000
1.000000
1.000000
1.000000
1.000000
1.000000
1.000000
1.000000
1.000000
1.000000
1.000000
1.000000
1.000000
1.000000
1.000000
1.000000
1.000000
1.000000
1.000000
1.000000
1.000000
1.000000
1.000000
1.000000
1.000000
1.000000
1.000000
1.000000
1.000000
1.000000
1.000000
1.000000
1.000000
1.000000
1.000000
1.000000
1.000000
1.000000
1.000000
1.000000
1.000000
1.000000
1.000000
1.000000
1.000000
1.000000
1.000000
1.000000
1.000000
1.000000
1.000000
1.000000
1.000000
1.000000
1.000000
1.000000
1.000000
1.000000
1.000000
1.000000
1.000000
1.000000
1.000000
1.000000
1.000000
1.000000
1.000000
1.000000
1.000000
1.000000
1.000000
1.000000
1.000000
1.000000
1.000000
1.000000
1.000000
1.000000
1.000000
1.000000
1.000000
1.000000
1.000000
1.000000
1.000000
1.000000
1.000000
1.000000
1.000000
1.000000
1.000000
1.000000
1.000000
1.000000
1.000000
1.000000
1.000000
1.000000
1.000000
1.000000
1.000000
1.000000
1.000000
1.000000
1.000000
1.000000
1.000000
1.000000
1.000000
1.000000
1.000000
1.000000
1.000000
1.000000
1.000000
1.000000
1.000000
1.000000
1.000000
1.000000
1.000000
1.000000
1.000000
1.000000
1.000000
1.000000
1.000000
1.000000
1.000000
1.000000
1.000000
1.000000
1.000000
1.000000
1.000000
1.000000
1.000000
1.000000
1.000000
1.000000
1.000000
1.000000
1.000000
1.000000
1.000000
1.000000
1.000000
1.000000
1.000000
1.000000
1.000000
1.000000
1.000000
1.000000
1.000000
1.000000
1.000000
1.000000
1.000000
1.000000
1.000000
1.000000
1.000000
1.000000
1.000000
1.000000
1.000000
1.000000
1.000000
1.000000
1.000000
1.000000
1.000000
1.000000
1.000000
1.000000
1.000000
1.000000
1.000000
1.000000
1.000000
1.000000
1.000000
1.000000
1.000000
1.000000
1.000000
1.000000
1.000000
1.000000
1.000000
1.000000
1.000000
1.000000
1.000000
1.000000
1.000000
1.000000
1.000000
1.000000
1.000000
1.000000
1.000000
1.000000
1.000000
1.000000
1.000000
1.000000
1.000000
1.000000
1.000000
1.000000
1.000000
1.000000
1.000000
1.000000
1.000000
1.000000
1.000000
1.000000
1.000000
1.000000
1.000000
1.000000
1.000000
1.000000
1.000000
1.000000
1.000000
1.000000
1.000000
1.000000
1.000000
1.000000
1.000000
1.000000
1.000000
1.000000
1.000000
1.000000
1.000000
1.000000
1.000000
1.000000
1.000000
1.000000
1.000000
1.000000
1.000000
1.000000
1.000000
1.000000
1.000000
1.000000
1.000000
1.000000
1.000000
1.000000
1.000000
1.000000
1.000000
1.000000
1.000000
1.000000
1.000000
1.000000
1.000000
1.000000
1.000000
1.000000
1.000000
1.000000
1.000000
1.000000
1.000000
1.000000
1.000000
1.000000
1.000000
1.000000
1.000000
1.000000
1.000000
1.000000
1.000000
1.000000
1.000000
1.000000
1.000000
1.000000
1.000000
1.000000
1.000000
1.000000
1.000000
1.000000
1.000000
1.000000
1.000000
1.000000
1.000000
1.000000
1.000000
1.000000
1.000000
1.000000
1.000000
1.000000
1.000000
1.000000
1.000000
1.000000
1.000000
1.000000
1.000000
1.000000
1.000000
1.000000
1.000000
1.000000
1.000000
1.000000
1.000000
1.000000
1.000000
1.000000
1.000000
1.000000
1.000000
1.000000
1.000000
1.000000
1.000000
1.000000
1.000000
1.000000
1.000000
1.000000
1.000000
1.000000
1.000000
1.000000
1.000000
1.000000
1.000000
1.000000
1.000000
1.000000
1.000000
1.000000
1.000000
1.000000
1.000000
1.000000
1.000000
1.000000
1.000000
1.000000
1.000000
1.000000
1.000000
1.000000
1.000000
1.000000
1.000000
1.000000
1.000000
1.000000
1.000000
1.000000
1.000000
1.000000
1.000000
1.000000
1.000000
1.000000
1.000000
1.000000
1.000000
1.000000
1.000000
1.000000
1.000000
1.000000
1.000000
1.000000
1.000000
1.000000
1.000000
1.000000
1.000000
1.000000
1.000000
1.000000
1.000000
1.000000
1.000000
1.000000
1.000000
1.000000
1.000000
1.000000
1.000000
1.000000
1.000000
1.000000
1.000000
1.000000
1.000000
1.000000
1.000000
1.000000
1.000000
1.000000
1.000000
1.000000
1.000000
1.000000
1.000000
1.000000
1.000000
1.000000
1.000000
1.000000
1.000000
1.000000
1.000000
1.000000
1.000000
1.000000
1.000000
1.000000
1.000000
1.000000
1.000000
1.000000
1.000000
1.000000
1.000000
1.000000
1.000000
1.000000
1.000000
1.000000
1.000000
1.000000
1.000000
1.000000
1.000000
1.000000
1.000000
1.000000
1.000000
1.000000
1.000000
VECTORS v double
-8.274305 0.002325 0.000000
-8.274401 0.000030 0.000000
-8.274406 -0.000000 0.000000
-8.274406 -0.000000 0.000000
-8.274406 0.000000 0.000000
-8.274406 -0.000000 0.000000
-8.274406 -0.000000 0.000000
-8.274406 -0.000000 0.000000
-8.274406 0.000000 0.000000
-8.274406 -0.000000 0.000000
-8.274406 0.000000 0.000000
-8.274406 0.000000 0.000000
-8.274406 -0.000000 0.000000
-8.274406 -0.000000 0.000000
-8.274406 -0.000000 0.000000
-8.274406 0.000000 0.000000
-8.274406 -0.000000 0.000000
-8.274406 -0.000000 0.000000
-8.274406 0.000000 0.000000
-8.274406 0.000000 0.000000
-8.274406 -0.000000 0.000000
-8.274406 0.000000 0.000000
-8.274406 0.000000 0.000000
-8.274401 -0.000030 0.000000
-8.274305 -0.002325 0.000000
8.273342 0.000806 0.000000
8.273394 -0.000004 0.000000
8.273399 -0.000000 0.000000
8.273399 0.000000 0.000000
8.273399 0.000000 0.000000
8.273399 -0.000000 0.000000
8.273399 -0.000000 0.000000
8.273399 -0.000000 0.000000
8.273399 0.000000 0.000000
8.273399 -0.000000 0.000000
8.273399 -0.000000 0.000000
8.273399 0.000000 0.000000
8.273399 -0.000000 0.000000
8.273399 -0.000000 0.000000
8.273399 -0.000000 0.000000
8.273399 0.000000 0.000000
8.273399 -0.000000 0.000000
8.273399 -0.000000 0.000000
8.273399 0.000000 0.000000
8.273399 0.000000 0.000000
8.273399 -0.000000 0.000000
8.273399 -0.000000 0.000000
8.273399 0.000000 0.000000
8.273394 0.000004 0.000000
8.273342 -0.000806 0.000000
-10.000038 0.001328 0.000000
-10.000043 0.000009 0.000000
-10.000043 -0.000000 0.000000
-10.000043 -0.000000 0.000000
-10.000043 0.000000 0.000000
-10.000043 -0.000000 0.000000
-10.000043 -0.000000 0.000000
-10.000043 -0.000000 0.000000
-10.000043 0.000000 0.000000
-10.000043 -0.000000 0.000000
-10.000043 -0.000000 0.000000
-10.000043 0.000000 0.000000
-10.000043 -0.000000 0.000000
-10.000043 -0.000000 0.000000
-10.000043 -0.000000 0.000000
-10.000043 0.000000 0.000000
-10.000043 -0.000000 0.000000
-10.000043 -0.000000 0.000000
-10.000043 0.000000 0.000000
-10.000043 0.000000 0.000000
-10.000043 -0.000000 0.000000
-10.000043 0.000000 0.000000
-10.000043 0.000000 0.000000
-10.000043 -0.000009 0.000000
-10.000038 -0.001328 0.000000
-10.000000 0.001324 0.000000
-10.000000 0.000009 0.000000
-10.000000 -0.000000 0.000000
-10.000000 -0.000000 0.000000
-10.000000 0.000000 0.000000
-10.000000 -0.000000 0.000000
-10.000000 -0.000000 0.000000
-10.000000 -0.000000 0.000000
-10.000000 0.000000 0.000000
-10.000000 -0.000000 0.000000
-10.000000 -0.000000 0.000000
-10.000000 0.000000 0.000000
-10.000000 -0.000000 0.000000
-10.000000 -0.000000 0.000000
-10.000000 -0.000000 0.000000
-10.000000 0.000000 0.000000
-10.000000 -0.000000 0.000000
-10.000000 -0.000000 0.000000
-10.000000 0.000000 0.000000
-10.000000 0.000000 0.000000
-10.000000 -0.000000 0.000000
-10.000000 0.000000 0.000000
-10.000000 0.000000 0.000000
-10.000000 -0.000009 0.000000
-10.000000 -0.001324 0.000000
-10.000000 0.001324 0.000000
-10.000000 0.000009 0.000000
-10.000000 -0.000000 0.000000
-10.000000 -0.000000 0.000000
-10.000000 0.000000 0.000000
-10.000000 -0.000000 0.000000
-10.000000 -0.000000 0.000000
-10.000000 -0.000000 0.000000
-10.000000 0.000000 0.000000
-10.000000 -0.000000 0.000000
-10.000000 0.000000 0.000000
-10.000000 0.000000 0.000000
-10.000000 -0.000000 0.000000
-10.000000 -0.000000 0.000000
-10.000000 -0.000000 0.000000
-10.000000 0.000000 0.000000
-10.000000 -0.000000 0.000000
-10.000000 -0.000000 0.000000
-10.000000 0.000000 0.000000
-10.000000 0.000000 0.000000
-10.000000 -0.000000 0.000000
-10.000000 0.000000 0.000000
-10.000000 0.000000 0.000000
-10.000000 -0.000009 0.000000
-10.000000 -0.001324 0.000000
-10.000000 0.001324 0.000000
-10.000000 0.000009 0.000000
-10.000000 -0.000000 0.000000
-10.000000 -0.000000 0.000000
-10.000000 0.000000 0.000000
-10.000000 -0.000000 0.000000
-10.000000 -0.000000 0.000000
-10.000000 -0.000000 0.000000
-10.000000 0.000000 0.000000
-10.000000 -0.000000 0.000000
-10.000000 -0.000000 0.000000
-10.000000 0.000000 0.000000
-10.000000 -0.000000 0.000000
-10.000000 -0.000000 0.000000
-10.000000 -0.000000 0.000000
-10.000000 0.000000 0.000000
-10.000000 -0.000000 0.000000
-10.000000 -0.000000 0.000000
-10.000000 0.000000 0.000000
-10.000000 0.000000 0.000000
-10.000000 -0.000000 0.000000
-10.000000 0.000000 0.000000
-10.000000 0.000000 0.000000
-10.000000 -0.000009 0.000000
-10.000000 -0.001324 0.000000
-10.000000 0.001324 0.000000
-10.000000 0.000009 0.000000
-10.000000 -0.000000 0.000000
-10.000000 -0.000000 0.000000
-10.000000 0.000000 0.000000
-10.000000 -0.000000 0.000000
-10.000000 -0.000000 0.000000
-10.000000 -0.000000 0.000000
-10.000000 0.000000 0.000000
-10.000000 -0.000000 0.000000
-10.000000 -0.000000 0.000000
-10.000000 0.000000 0.000000
-10.000000 -0.000000 0.000000
-10.000000 -0.000000 0.000000
-10.000000 -0.000000 0.000000
-10.000000 0.000000 0.000000
-10.000000 -0.000000 0.000000
-10.000000 -0.000000 0.000000
-10.000000 0.000000 0.000000
-10.000000 0.000000 0.000000
-10.000000 -0.000000 0.000000
-10.000000 0.000000 0.000000
-10.000000 0.000000 0.000000
-10.000000 -0.000009 0.000000
-10.000000 -0.001324 0.000000
-10.000000 0.001324 0.000000
-10.000000 0.000009 0.000000
-10.000000 -0.000000 0.000000
-10.000000 -0.000000 0.000000
-10.000000 0.000000 0.000000
-10.000000 -0.000000 0.000000
-10.000000 -0.000000 0.000000
-10.000000 -0.000000 0.000000
-10.000000 0.000000 0.000000
-10.000000 -0.000000 0.000000
-10.000000 -0.000000 0.000000
-10.000000 0.000000 0.000000
-10.000000 -0.000000 0.000000
-10.000000 -0.000000 0.000000
-10.000000 -0.000000 0.000000
-10.000000 0.000000 0.000000
-10.000000 -0.000000 0.000000
-10.000000 -0.000000 0.000000
-10.000000 0.000000 0.000000
-10.000000 0.000000 0.000000
-10.000000 -0.000000 0.000000
-10.000000 0.000000 0.000000
-10.000000 0.000000 0.000000
-10.000000 -0.000009 0.000000
-10.000000 -0.001324 0.000000
-10.000000 0.001324 0.000000
-10.000000 0.000009 0.000000
-10.000000 -0.000000 0.000000
-10.000000 -0.000000 0.000000
-10.000000 0.000000 0.000000
-10.000000 -0.000000 0.000000
-10.000000 -0.000000 0.000000
-10.000000 -0.000000 0.000000
-10.000000 0.000000 0.000000
-10.000000 -0.000000 0.000000
-10.000000 0.000000 0.000000
-10.000000 0.000000 0.000000
-10.000000 -0.000000 0.000000
-10.000000 -0.000000 0.000000
-10.000000 -0.000000 0.000000
-10.000000 0.000000 0.000000
-10.000000 -0.000000 0.000000
-10.000000 -0.000000 0.000000
-10.000000 0.000000 0.000000
-10.000000 0.000000 0.000000
-10.000000 -0.000000 0.000000
-10.000000 0.000000 0.000000
-10.000000 0.000000 0.000000
-10.000000 -0.000009 0.000000
-10.000000 -0.001324 0.000000
-10.000000 0.001324 0.000000
-10.000000 0.000009 0.000000
-10.000000 -0.000000 0.000000
-10.000000 -0.000000 0.000000
-10.000000 0.000000 0.000000
-10.000000 -0.000000 0.000000
-10.000000 -0.000000 0.000000
-10.000000 -0.000000 0.000000
-10.000000 0.000000 0.000000
-10.000000 -0.000000 0.000000
-10.000000 -0.000000 0.000000
-10.000000 0.000000 0.000000
-10.000000 -0.000000 0.000000
-10.000000 -0.000000 0.000000
-10.000000 -0.000000 0.000000
-10.000000 0.000000 0.000000
-10.000000 -0.000000 0.000000
-10.000000 -0.000000 0.000000
-10.000000 0.000000 0.000000
-10.000000 0.000000 0.000000
-10.000000 -0.000000 0.000000
-10.000000 0.000000 0.000000
-10.000000 0.000000 0.000000
-10.000000 -0.000009 0.000000
-10.000000 -0.001324 0.000000
-10.000000 0.001324 0.000000
-10.000000 0.000009 0.000000
-10.000000 -0.000000 0.000000
-10.000000 -0.000000 0.000000
-10.000000 0.000000 0.000000
-10.000000 -0.000000 0.000000
-10.000000 -0.000000 0.000000
-10.000000 -0.000000 0.000000
-10.000000 0.000000 0.000000
-10.000000 -0.000000 0.000000
-10.000000 -0.000000 0.000000
-10.000000 0.000000 0.000000
-10.000000 -0.000000 0.000000
-10.000000 -0.000000 0.000000
-10.000000 -0.000000 0.000000
-10.000000 0.000000 0.000000
-10.000000 -0.000000 0.000000
-10.000000 -0.000000 0.000000
-10.000000 0.000000 0.000000
-10.000000 0.000000 0.000000
-10.000000 -0.000000 0.000000
-10.000000 0.000000 0.000000
-10.000000 0.000000 0.000000
-10.000000 -0.000009 0.000000
-10.000000 -0.001324 0.000000
-10.000000 0.001324 0.000000
-10.000000 0.000009 0.000000
-10.000000 -0.000000 0.000000
-10.000000 -0.000000 0.000000
-10.000000 0.000000 0.000000
-10.000000 -0.000000 0.000000
-10.000000 -0.000000 0.000000
-10.000000 -0.000000 0.000000
-10.000000 0.000000 0.000000
-10.000000 -0.000000 0.000000
-10.000000 0.000000 0.000000
-10.000000 0.000000 0.000000
-10.000000 -0.000000 0.000000
-10.000000 -0.000000 0.000000
-10.000000 -0.000000 0.000000
-10.000000 0.000000 0.000000
-10.000000 -0.000000 0.000000
-10.000000 -0.000000 0.000000
-10.000000 0.000000 0.000000
-10.000000 0.000000 0.000000