# vtk DataFile Version 4.0
hesp visualization file
ASCII
DATASET UNSTRUCTURED_GRID
POINTS 1250 double
33.848717 -1.466469 4.000000
31.143012 -1.302404 4.000000
33.641401 6.631715 4.000000
33.201946 8.133241 4.000000
29.355142 4.697464 4.000000
29.237065 14.719290 4.000000
31.987854 8.792028 4.000000
33.007697 10.349742 4.000000
32.733119 15.539466 4.000000
34.371553 13.637005 4.000000
33.173505 11.412560 4.000000
31.885340 15.361677 4.000000
32.080411 16.227319 4.000000
30.205466 16.749492 4.000000
31.504149 18.155146 4.000000
29.142406 16.481373 4.000000
31.588531 19.691993 4.000000
33.631384 16.011491 4.000000
27.804024 22.890381 4.000000
28.981758 17.485324 4.000000
34.761385 23.380907 4.000000
30.750567 31.013712 4.000000
34.748868 25.397112 4.000000
31.808216 31.097324 4.000000
30.986610 29.148371 4.000000
31.942778 -17.291933 4.000000
32.032205 1.126108 4.000000
34.737292 -7.319611 4.000000
31.916488 2.087237 4.000000
27.478963 8.734993 4.000000
30.409514 3.730782 4.000000
32.742334 7.626764 4.000000
31.782042 12.513569 4.000000
33.158280 12.777800 4.000000
32.028732 12.658048 4.000000
30.346132 12.080678 4.000000
27.782292 11.766021 4.000000
33.967907 14.798695 4.000000
31.194106 17.195342 4.000000
34.733686 15.361076 4.000000
31.004583 14.186740 4.000000
32.108553 17.319882 4.000000
31.032807 16.553030 4.000000
32.774913 20.796597 4.000000
31.398099 24.040172 4.000000
31.659119 24.666813 4.000000
32.316900 20.320127 4.000000
34.755270 36.492731 4.000000
31.494573 28.899172 4.000000
31.942778 46.475946 4.000000
31.838279 -6.809741 4.000000
34.741036 1.727719 4.000000
32.537725 1.433066 4.000000
28.798756 8.094772 4.000000
35.820424 0.243772 4.000000
31.021823 11.139035 4.000000
31.607345 8.497302 4.000000
30.699318 5.792984 4.000000
29.796543 14.663634 4.000000
32.630038 11.814339 4.000000
31.448239 12.002849 4.000000
26.763996 16.119161 4.000000
36.628960 14.105788 4.000000
35.678713 14.074647 4.000000
33.850486 13.396600 4.000000
33.588943 15.669697 4.000000
30.244710 20.463274 4.000000
29.867766 20.564433 4.000000
31.006441 19.227542 4.000000
35.477097 15.053739 4.000000
31.096771 25.757335 4.000000
31.854033 18.903990 4.000000
32.362607 21.712893 4.000000
32.943550 29.949732 4.000000
31.769421 35.954849 4.000000
31.961353 -5.547143 4.000000
35.640080 -11.161789 4.000000
31.915179 4.637024 4.000000
37.672074 2.473611 4.000000
30.345292 2.504875 4.000000
32.017694 2.423986 4.000000
29.769376 7.626149 4.000000
29.859366 12.158693 4.000000
32.106252 8.586777 4.000000
34.564667 3.221666 4.000000
36.436553 15.986447 4.000000
33.162097 14.314611 4.000000
35.976776 10.295239 4.000000
30.376418 16.200985 4.000000
35.476321 15.992846 4.000000
29.615687 17.639302 4.000000
35.622180 18.117237 4.000000
32.080605 12.411724 4.000000
29.084787 23.636265 4.000000
31.212768 18.252779 4.000000
36.490918 27.795795 4.000000
36.443739 30.195844 4.000000
30.632992 27.954902 4.000000
35.640085 40.345801 4.000000
32.808526 34.092442 4.000000
31.533364 1.717661 4.000000
32.369525 1.930688 4.000000
30.917545 -10.037278 4.000000
31.528494 4.826735 4.000000
30.971386 7.755160 4.000000
30.785041 12.156803 4.000000
33.445632 7.473289 4.000000
35.329086 10.824057 4.000000
33.801171 8.456092 4.000000
33.956146 11.050397 4.000000
31.321845 14.856400 4.000000
32.682096 8.967610 4.000000
36.673906 18.300018 4.000000
33.112774 16.157119 4.000000
27.082632 16.864807 4.000000
36.545543 13.316346 4.000000
30.385021 19.898637 4.000000
31.950408 17.917124 4.000000
33.071316 23.865630 4.000000
32.118362 21.488209 4.000000
32.250140 23.538968 4.000000
34.327948 23.347085 4.000000
34.856781 35.625501 4.000000
33.170940 28.135163 4.000000
30.156975 29.506765 4.000000
30.325535 -6.167146 4.000000
31.065880 -10.378003 4.000000
38.293930 6.000599 4.000000
28.452469 4.887281 4.000000
32.835415 6.130110 4.000000
30.982465 7.120783 4.000000
30.078622 8.808622 4.000000
32.799829 13.488764 4.000000
31.819653 11.643790 4.000000
32.235897 7.929989 4.000000
29.339365 11.576364 4.000000
34.457439 12.155575 4.000000
32.296482 13.823923 4.000000
34.597978 14.581301 4.000000
32.220064 10.471455 4.000000
34.037831 15.442839 4.000000
34.818999 16.768979 4.000000
33.360959 24.868606 4.000000
30.104181 18.994838 4.000000
28.666320 25.345280 4.000000
30.318251 19.197478 4.000000
29.360856 17.306713 4.000000
42.040890 21.231789 4.000000
31.035460 39.443194 4.000000
30.325545 35.351166 4.000000
30.987377 -2.079500 4.000000
36.414608 -6.104425 4.000000
32.366977 -2.922162 4.000000
32.453119 2.764692 4.000000
27.921342 9.521259 4.000000
31.573476 6.003894 4.000000
33.659744 7.901046 4.000000
37.315407 13.531521 4.000000
28.791854 5.629304 4.000000
30.991754 10.473478 4.000000
30.757055 9.816464 4.000000
36.829625 16.089526 4.000000
33.925747 14.160899 4.000000
29.479591 16.052156 4.000000
33.957834 24.379000 4.000000
32.618231 17.602088 4.000000
32.136982 24.727888 4.000000
34.620716 22.285230 4.000000
30.406175 21.121090 4.000000
30.694247 21.997323 4.000000
33.092796 29.423085 4.000000
33.209010 17.880964 4.000000
30.975104 28.378220 4.000000
31.997941 29.893677 4.000000
32.123573 31.810026 4.000000
41.373037 -11.813110 4.000000
32.542881 -3.887331 4.000000
36.768313 -0.167780 4.000000
31.605126 5.623616 4.000000
30.653359 7.547775 4.000000
32.968041 3.657626 4.000000
35.503036 9.239288 4.000000
37.297420 10.290863 4.000000
30.638954 11.378234 4.000000
34.123779 12.835428 4.000000
32.279502 13.251890 4.000000
33.773562 12.656956 4.000000
33.781918 17.373844 4.000000
37.372924 19.490179 4.000000
34.929557 17.367236 4.000000
34.617086 16.583957 4.000000
35.967070 18.713185 4.000000
35.130613 22.759193 4.000000
34.758068 19.311404 4.000000
30.061335 20.956132 4.000000
32.176314 19.229371 4.000000
32.851206 19.642769 4.000000
35.548192 30.811777 4.000000
32.588016 18.156954 4.000000
41.373037 40.997124 4.000000
30.379192 0.003309 4.000000
33.320035 1.045015 4.000000
35.684166 -6.598578 4.000000
37.487876 4.980830 4.000000
33.707419 7.182557 4.000000
35.210238 5.468202 4.000000
29.332203 12.924922 4.000000
36.318275 11.513845 4.000000
37.353522 9.291336 4.000000
35.063729 6.473217 4.000000
35.863310 7.962863 4.000000
37.722951 15.967372 4.000000
39.433268 15.596197 4.000000
34.206022 16.246041 4.000000
31.397499 18.455589 4.000000
36.164005 17.631917 4.000000
34.139221 17.618294 4.000000
37.128357 15.292425 4.000000
30.710857 16.983809 4.000000
31.464606 20.839607 4.000000
34.986493 19.986342 4.000000
34.671113 24.328341 4.000000
37.742315 33.533479 4.000000
26.700446 29.121997 4.000000
33.344291 32.463561 4.000000
32.283353 0.415673 4.000000
31.722324 -7.754869 4.000000
31.860214 -1.045784 4.000000
34.802365 2.761311 4.000000
35.038606 9.717575 4.000000
33.481448 2.368091 4.000000
38.106562 7.504771 4.000000
38.412424 12.276819 4.000000
34.378877 14.114254 4.000000
37.690662 11.453018 4.000000
32.581501 10.641331 4.000000
37.488333 15.127830 4.000000
33.721264 13.811695 4.000000
37.689119 19.353821 4.000000
35.955464 16.511020 4.000000
36.589372 14.770588 4.000000
36.460602 16.994128 4.000000
32.124209 20.845265 4.000000
33.990052 23.366100 4.000000
36.629603 21.959735 4.000000
35.096780 24.769826 4.000000
31.948026 26.493330 4.000000
32.182493 30.809461 4.000000
31.723065 36.939009 4.000000
32.412382 28.111062 4.000000
31.801708 -3.488690 4.000000
35.048932 -2.168785 4.000000
34.936087 4.494362 4.000000
33.417696 2.063221 4.000000
35.062061 5.948801 4.000000
40.761658 8.049700 4.000000
30.213519 6.938877 4.000000
35.493900 12.452048 4.000000
34.535400 9.716029 4.000000
39.496187 14.779944 4.000000
34.540599 12.823622 4.000000
36.460681 7.168359 4.000000
36.488447 12.763770 4.000000
36.225657 14.923841 4.000000
36.807782 17.333699 4.000000
38.072616 14.699967 4.000000
34.156304 17.053621 4.000000
34.922850 14.419004 4.000000
30.680038 21.054382 4.000000
35.400430 20.687212 4.000000
36.800949 21.612126 4.000000
29.519043 30.341692 4.000000
36.980884 26.696642 4.000000
33.050633 25.608004 4.000000
31.337530 30.782013 4.000000
30.899318 -5.940472 4.000000
33.336030 -5.755563 4.000000
35.520629 12.119831 4.000000
34.010883 3.490665 4.000000
37.257181 11.397188 4.000000
34.472530 8.667877 4.000000
36.425709 9.144182 4.000000
33.149683 8.498225 4.000000
35.470586 11.794827 4.000000
36.914004 14.032502 4.000000
37.974260 12.899945 4.000000
37.786005 12.585573 4.000000
35.937434 19.893637 4.000000
34.569456 17.703972 4.000000
37.841319 17.116871 4.000000
33.727334 17.145727 4.000000
38.313477 16.116480 4.000000
39.072466 21.683392 4.000000
36.122469 20.970397 4.000000
35.492097 23.230571 4.000000
36.854864 28.178478 4.000000
31.035627 28.093324 4.000000
40.759871 19.037415 4.000000
33.665335 34.590414 4.000000
30.823425 34.832187 4.000000
31.322826 -1.585767 4.000000
30.690070 -4.627952 4.000000
39.847054 1.425150 4.000000
38.321381 6.727560 4.000000
36.941774 4.690258 4.000000
36.089032 7.625235 4.000000
35.050841 6.917193 4.000000
32.890583 7.341791 4.000000
34.760452 12.232247 4.000000
39.307178 12.467280 4.000000
38.597024 9.209821 4.000000
36.669058 12.111652 4.000000
39.853986 17.887664 4.000000
37.686022 15.412171 4.000000
37.768791 21.674606 4.000000
35.854005 18.966698 4.000000
34.332128 18.548827 4.000000
36.308510 19.863633 4.000000
37.084505 18.660357 4.000000
35.777266 23.969135 4.000000
39.381478 21.517927 4.000000
34.032312 19.771149 4.000000
35.696534 34.947651 4.000000
29.885423 32.911354 4.000000
33.216653 33.974026 4.000000
33.024866 -1.813683 4.000000
33.877418 -1.004453 4.000000
32.288888 -4.113190 4.000000
35.505082 1.248510 4.000000
34.669748 4.123391 4.000000
39.187650 5.213246 4.000000
38.587132 6.132340 4.000000
42.208907 8.257391 4.000000
34.923442 11.435845 4.000000
38.403418 11.656735 4.000000
34.709949 11.568666 4.000000
39.194378 15.405944 4.000000
36.026287 15.462035 4.000000
38.277816 15.568520 4.000000
41.389172 14.946784 4.000000
34.043717 21.160227 4.000000
36.813631 16.822073 4.000000
34.881813 18.663355 4.000000
[...]
POINT_DATA 1250
SCALARS m double
LOOKUP_TABLE default
1.000000
1.000000
1.000000
1.000000
1.000000
1.000000
1.000000
1.000000
1.000000
1.000000
1.000000
1.000000
1.000000
1.000000
1.000000
1.000000
1.000000
1.000000
1.000000
1.000000
1.000000
1.000000
1.000000
1.000000
1.000000
1.000000
1.000000
1.000000
1.000000
1.000000
1.000000
1.000000
1.000000
1.000000
1.000000
1.000000
1.000000
1.000000
1.000000
1.000000
1.000000
1.000000
1.000000
1.000000
1.000000
1.000000
1.000000
1.000000
1.000000
1.000000
1.000000
1.000000
1.000000
1.000000
1.000000
1.000000
1.000000
1.000000
1.000000
1.000000
1.000000
1.000000
1.000000
1.000000
1.000000
1.000000
1.000000
1.000000
1.000000
1.000000
1.000000
1.000000
1.000000
1.000000
1.000000
1.000000
1.000000
1.000000
1.000000
1.000000
1.000000
1.000000
1.000000
1.000000
1.000000
1.000000
1.000000
1.000000
1.000000
1.000000
1.000000
1.000000
1.000000
1.000000
1.000000
1.000000
1.000000
1.000000
1.000000
1.000000
1.000000
1.000000
1.000000
1.000000
1.000000
1.000000
1.000000
1.000000
1.000000
1.000000
1.000000
1.000000
1.000000
1.000000
1.000000
1.000000
1.000000
1.000000
1.000000
1.000000
1.000000
1.000000
1.000000
1.000000
1.000000
1.000000
1.000000
1.000000
1.000000
1.000000
1.000000
1.000000
1.000000
1.000000
1.000000
1.000000
1.000000
1.000000
1.000000
1.000000
1.000000
1.000000
1.000000
1.000000
1.000000
1.000000
1.000000
1.000000
1.000000
1.000000
1.000000
1.000000
1.000000
1.000000
1.000000
1.000000
1.000000
1.000000
1.000000
1.000000
1.000000
1.000000
1.000000
1.000000
1.000000
1.000000
1.000000
1.000000
1.000000
1.000000
1.000000
1.000000
1.000000
1.000000
1.000000
1.000000
1.000000
1.000000
1.000000
1.000000
1.000000
1.000000
1.000000
1.000000
1.000000
1.000000
1.000000
1.000000
1.000000
1.000000
1.000000
1.000000
1.000000
1.000000
1.000000
1.000000
1.000000
1.000000
1.000000
1.000000
1.000000
1.000000
1.000000
1.000000
1.000000
1.000000
1.000000
1.000000
1.000000
1.000000
1.000000
1.000000
1.000000
1.000000
1.000000
1.000000
1.000000
1.000000
1.000000
1.000000
1.000000
1.000000
1.000000
1.000000
1.000000
1.000000
1.000000
1.000000
1.000000
1.000000
1.000000
1.000000
1.000000
1.000000
1.000000
1.000000
1.000000
1.000000
1.000000
1.000000
1.000000
1.000000
1.000000
1.000000
1.000000
1.000000
1.000000
1.000000
1.000000
1.000000
1.000000
1.000000
1.000000
1.000000
1.000000
1.000000
1.000000
1.000000
1.000000
1.000000
1.000000
1.000000
1.000000
1.000000
1.000000
1.000000
1.000000
1.000000
1.000000
1.000000
1.000000
1.000000
1.000000
1.000000
1.000000
1.000000
1.000000
1.000000
1.000000
1.000000
1.000000
1.000000
1.000000
1.000000
1.000000
1.000000
1.000000
1.000000
1.000000
1.000000
1.000000
1.000000
1.000000
1.000000
1.000000
1.000000
1.000000
1.000000
1.000000
1.000000
1.000000
1.000000
1.000000
1.000000
1.000000
1.000000
1.000000
1.000000
1.000000
1.000000
1.000000
1.000000
1.000000
1.000000
1.000000
1.000000
1.000000
1.000000
1.000000
1.000000
1.000000
1.000000
1.000000
1.000000
1.000000
1.000000
1.000000
1.000000
1.000000
1.000000
1.000000
1.000000
1.000000
1.000000
1.000000
1.000000
1.000000
1.000000
1.000000
1.000000
1.000000
1.000000
1.000000
1.000000
1.000000
1.000000
1.000000
1.000000
1.000000
1.000000
1.000000
1.000000
1.000000
1.000000
1.000000
1.000000
1.000000
1.000000
1.000000
1.000000
1.000000
1.000000
1.000000
1.000000
1.000000
1.000000
1.000000
1.000000
1.000000
1.000000
1.000000
1.000000
1.000000
1.000000
1.000000
1.000000
1.000000
1.000000
1.000000
1.000000
1.000000
1.000000
1.000000
1.000000
1.000000
1.000000
1.000000
1.000000
1.000000
1.000000
1.000000
1.000000
1.000000
1.000000
1.000000
1.000000
1.000000
1.000000
1.000000
1.000000
1.000000
1.000000
1.000000
1.000000
1.000000
1.000000
1.000000
1.000000
1.000000
1.000000
1.000000
1.000000
1.000000
1.000000
1.000000
1.000000
1.000000
1.000000
1.000000
1.000000
1.000000
1.000000
1.000000
1.000000
1.000000
1.000000
1.000000
1.000000
1.000000
1.000000
1.000000
1.000000
1.000000
1.000000
1.000000
1.000000
1.000000
1.000000
1.000000
1.000000
1.000000
1.000000
1.000000
1.000000
1.000000
1.000000
1.000000
1.000000
1.000000
1.000000
1.000000
1.000000
1.000000
1.000000
1.000000
1.000000
1.000000
1.000000
1.000000
1.000000
1.000000
1.000000
1.000000
1.000000
1.000000
1.000000
1.000000
1.000000
1.000000
1.000000
1.000000
1.000000
1.000000
1.000000
1.000000
1.000000
1.000000
1.000000
1.000000
1.000000
1.000000
1.000000
1.000000
1.000000
1.000000
1.000000
1.000000
1.000000
1.000000
1.000000
1.000000
1.000000
1.000000
1.000000
1.000000
1.000000
1.000000
1.000000
1.000000
1.000000
1.000000
1.000000
1.000000
1.000000
1.000000
1.000000
1.000000
1.000000
1.000000
1.000000
1.000000
1.000000
1.000000
1.000000
1.000000
1.000000
1.000000
1.000000
1.000000
1.000000
1.000000
1.000000
1.000000
1.000000
1.000000
1.000000
1.000000
1.000000
1.000000
1.000000
1.000000
1.000000
1.000000
1.000000
1.000000
1.000000
1.000000
1.000000
1.000000
1.000000
1.000000
1.000000
1.000000
1.000000
1.000000
1.000000
1.000000
1.000000
1.000000
1.000000
1.000000
1.000000
1.000000
1.000000
1.000000
1.000000
1.000000
1.000000
1.000000
1.000000
1.000000
1.000000
1.000000
1.000000
1.000000
1.000000
1.000000
1.000000
1.000000
1.000000
1.000000
1.000000
1.000000
1.000000
1.000000
1.000000
1.000000
1.000000
1.000000
1.000000
1.000000
1.000000
1.000000
1.000000
1.000000
1.000000
1.000000
1.000000
1.000000
1.000000
1.000000
1.000000
1.000000
1.000000
1.000000
1.000000
1.000000
1.000000
1.000000
1.000000
1.000000
1.000000
1.000000
1.000000
1.000000
1.000000
1.000000
1.000000
1.000000
1.000000
1.000000
1.000000
1.000000
1.000000
1.000000
1.000000
1.000000
1.000000
1.000000
1.000000
1.000000
1.000000
1.000000
1.000000
1.000000
1.000000
1.000000
1.000000
1.000000
1.000000
1.000000
1.000000
1.000000
1.000000
1.000000
1.000000
1.000000
1.000000
1.000000
1.000000
1.000000
1.000000
1.000000
1.000000
1.000000
1.000000
1.000000
1.000000
1.000000
1.000000
1.000000
1.000000
1.000000
1.000000
1.000000
1.000000
1.000000
1.000000
1.000000
1.000000
1.000000
1.000000
1.000000
1.000000
1.000000
1.000000
1.000000
1.000000
1.000000
1.000000
1.000000
1.000000
1.000000
1.000000
1.000000
1.000000
1.000000
1.000000
1.000000
1.000000
1.000000
1.000000
1.000000
1.000000
1.000000
1.000000
1.000000
1.000000
1.000000
1.000000
1.000000
1.000000
1.000000
1.000000
1.000000
1.000000
1.000000
1.000000
1.000000
1.000000
1.000000
1.000000
1.000000
1.000000
1.000000
1.000000
1.000000
1.000000
1.000000
1.000000
1.000000
1.000000
1.000000
1.000000
1.000000
1.000000
1.000000
1.000000
1.000000
1.000000
1.000000
1.000000
1.000000
1.000000
1.000000
1.000000
1.000000
1.000000
1.000000
1.000000
1.000000
1.000000
1.000000
1.000000
1.000000
1.000000
1.000000
1.000000
1.000000
1.000000
1.000000
1.000000
1.000000
1.000000
1.000000
1.000000
1.000000
1.000000
1.000000
1.000000
1.000000
1.000000
1.000000
1.000000
1.000000
1.000000
1.000000
1.000000
1.000000
1.000000
1.000000
1.000000
1.000000
1.000000
1.000000
1.000000
1.000000
1.000000
1.000000
1.000000
1.000000
1.000000
1.000000
1.000000
1.000000
1.000000
1.000000
1.000000
1.000000
1.000000
1.000000
1.000000
1.000000
1.000000
1.000000
1.000000
1.000000
1.000000
1.000000
1.000000
1.000000
1.000000
1.000000
1.000000
1.000000
1.000000
1.000000
1.000000
1.000000
1.000000
1.000000
1.000000
1.000000
1.000000
1.000000
1.000000
1.000000
1.000000
1.000000
1.000000
1.000000
1.000000
1.000000
1.000000
1.000000
1.000000
1.000000
1.000000
1.000000
1.000000
1.000000
1.000000
1.000000
1.000000
1.000000
1.000000
1.000000
1.000000
1.000000
1.000000
1.000000
1.000000
1.000000
1.000000
1.000000
1.000000
1.000000
1.000000
1.000000
1.000000
1.000000
1.000000
1.000000
1.000000
1.000000
1.000000
1.000000
1.000000
1.000000
1.000000
1.000000
1.000000
1.000000
1.000000
1.000000
1.000000
1.000000
1.000000
1.000000
1.000000
1.000000
1.000000
1.000000
1.000000
1.000000
1.000000
1.000000
1.000000
1.000000
1.000000
1.000000
1.000000
1.000000
1.000000
1.000000
1.000000
1.000000
1.000000
1.000000
1.000000
1.000000
1.000000
1.000000
1.000000
1.000000
1.000000
1.000000
1.000000
1.000000
1.000000
1.000000
1.000000
1.000000
1.000000
1.000000
1.000000
1.000000
1.000000
1.000000
1.000000
1.000000
1.000000
1.000000
1.000000
1.000000
1.000000
1.000000
1.000000
1.000000
1.000000
1.000000
1.000000
1.000000
1.000000
1.000000
1.000000
1.000000
1.000000
1.000000
1.000000
1.000000
1.000000
1.000000
1.000000
1.000000
1.000000
1.000000
1.000000
1.000000
1.000000
1.000000
1.000000
1.000000
1.000000
1.000000
1.000000
1.000000
1.000000
1.000000
1.000000
1.000000
1.000000
1.000000
1.000000
1.000000
1.000000
1.000000
1.000000
1.000000
1.000000
1.000000
1.000000
1.000000
1.000000
1.000000
1.000000
1.000000
1.000000
1.000000
1.000000
1.000000
1.000000
1.000000
1.000000
1.000000
1.000000
1.000000
1.000000
1.000000
1.000000
1.000000
1.000000
1.000000
1.000000
1.000000
1.000000
1.000000
1.000000
1.000000
1.000000
1.000000
1.000000
1.000000
1.000000
1.000000
1.000000
1.000000
1.000000
1.000000
1.000000
1.000000
1.000000
1.000000
1.000000
1.000000
1.000000
1.000000
1.000000
1.000000
1.000000
1.000000
1.000000
1.000000
1.000000
1.000000
1.000000
1.000000
1.000000
1.000000
1.000000
1.000000
1.000000
1.000000
1.000000
1.000000
1.000000
1.000000
1.000000
1.000000
1.000000
1.000000
1.000000
1.000000
1.000000
1.000000
1.000000
1.000000
1.000000
1.000000
1.000000
1.000000
1.000000
1.000000
1.000000
1.000000
1.000000
1.000000
1.000000
1.000000
1.000000
1.000000
1.000000
1.000000
1.000000
1.000000
1.000000
1.000000
1.000000
1.000000
1.000000
1.000000
1.000000
1.000000
1.000000
1.000000
1.000000
1.000000
1.000000
1.000000
1.000000
1.000000
1.000000
1.000000
1.000000
1.000000
1.000000
1.000000
1.000000
1.000000
1.000000
1.000000
1.000000
1.000000
1.000000
1.000000
1.000000
1.000000
1.000000
1.000000
1.000000
1.000000
1.000000
1.000000
1.000000
1.000000
1.000000
1.000000
1.000000
1.000000
1.000000
1.000000
1.000000
1.000000
1.000000
1.000000
1.000000
1.000000
1.000000
1.000000
1.000000
1.000000
1.000000
1.000000
1.000000
1.000000
1.000000
1.000000
1.000000
1.000000
1.000000
1.000000
1.000000
1.000000
1.000000
1.000000
1.000000
1.000000
1.000000
1.000000
1.000000
1.000000
1.000000
1.000000
1.000000
1.000000
1.000000
1.000000
1.000000
1.000000
1.000000
1.000000
1.000000
1.000000
1.000000
1.000000
1.000000
1.000000
1.000000
1.000000
1.000000
1.000000
1.000000
1.000000
1.000000
1.000000
1.000000
1.000000
1.000000
1.000000
1.000000
1.000000
1.000000
1.000000
1.000000
1.000000
1.000000
1.000000
1.000000
1.000000
1.000000
1.000000
1.000000
1.000000
1.000000
1.000000
1.000000
1.000000
1.000000
1.000000
1.000000
1.000000
1.000000
1.000000
1.000000
1.000000
1.000000
1.000000
1.000000
1.000000
1.000000
1.000000
1.000000
1.000000
1.000000
1.000000
1.000000
1.000000
1.000000
1.000000
1.000000
1.000000
1.000000
1.000000
1.000000
1.000000
1.000000
1.000000
1.000000
1.000000
1.000000
1.000000
1.000000
1.000000
1.000000
1.000000
1.000000
1.000000
1.000000
1.000000
1.000000
1.000000
1.000000
1.000000
1.000000
1.000000
1.000000
1.000000
1.000000
1.000000
1.000000
1.000000
1.000000
1.000000
1.000000
1.000000
1.000000
1.000000
1.000000
1.000000
1.000000
1.000000
1.000000
1.000000
1.000000
1.000000
1.000000
1.000000
1.000000
1.000000
1.000000
1.000000
1.000000
1.000000
1.000000
1.000000
1.000000
1.000000
1.000000
1.000000
1.000000
VECTORS v double
-8.231513 -13.754247 0.000000
3.106672 -3.688260 0.000000
0.130317 -1.142386 0.000000
1.909349 -4.177721 0.000000
-11.667790 -0.657293 0.000000
9.633670 4.409928 0.000000
-12.286368 -7.049236 0.000000
4.799478 -8.009284 0.000000
12.279043 -1.648931 0.000000
-2.790305 -2.151671 0.000000
5.683430 -6.018229 0.000000
1.514471 1.011905 0.000000
6.329973 -6.996590 0.000000
8.322829 -1.528504 0.000000
-4.313855 0.515251 0.000000
-1.437109 -5.585951 0.000000
12.872110 1.534429 0.000000
9.252125 8.311880 0.000000
-5.831429 3.764749 0.000000
-5.737891 -6.837407 0.000000
3.348428 16.203259 0.000000
-7.961495 5.929021 0.000000
4.875966 -2.434989 0.000000
-4.497361 10.592248 0.000000
-1.416940 7.872346 0.000000
2.630965 -13.726701 0.000000
-7.901041 3.313339 0.000000
5.360144 -9.594700 0.000000
0.307915 -7.224206 0.000000
-22.361508 3.740076 0.000000
2.086972 -6.748176 0.000000
8.151831 -0.729429 0.000000
3.776399 -6.121729 0.000000
5.049986 -6.293899 0.000000
-7.211959 -6.406433 0.000000
3.899080 -6.092031 0.000000
-13.048027 -7.901048 0.000000
7.555893 8.001994 0.000000
-2.344856 -7.902480 0.000000
9.623502 -4.139653 0.000000
-1.048812 2.563484 0.000000
-0.589643 16.408773 0.000000
-8.458896 3.261854 0.000000
1.942908 -0.704482 0.000000
1.297715 0.134315 0.000000
-4.122928 6.971038 0.000000
-6.816420 -14.426724 0.000000
5.385759 9.584163 0.000000
-0.261081 7.845735 0.000000
2.630965 13.726701 0.000000
-0.081827 -9.566591 0.000000
-9.713440 4.486844 0.000000
-5.191879 -2.286760 0.000000
-2.412370 3.564537 0.000000
-13.023156 -10.747418 0.000000
-12.282064 -5.316219 0.000000
-2.966413 -0.897390 0.000000
0.111001 7.522843 0.000000
0.967354 7.080994 0.000000
3.520638 -11.272010 0.000000
-1.631344 18.773376 0.000000
-15.058819 0.213607 0.000000
-0.468637 5.875865 0.000000
14.668586 3.235675 0.000000
5.285493 4.144805 0.000000
3.514247 -12.081847 0.000000
0.495636 2.522133 0.000000
-13.705847 -8.089567 0.000000
-9.991701 5.212067 0.000000
8.698034 -6.691555 0.000000
-5.786314 -3.257794 0.000000
0.718688 18.337823 0.000000
2.306071 -4.023567 0.000000
-3.738560 9.869208 0.000000
-0.277541 9.465595 0.000000
3.154144 -10.534316 0.000000
6.835050 -10.617898 0.000000
-0.613051 -1.419300 0.000000
2.574476 -3.238985 0.000000
-4.329844 -7.966620 0.000000
4.590044 -1.933354 0.000000
-8.775093 1.643117 0.000000
-4.508113 0.919392 0.000000
-5.273918 -7.145117 0.000000
-0.029061 -17.119380 0.000000
10.493425 -8.225812 0.000000
-4.166051 -17.752333 0.000000
9.993247 -3.385841 0.000000
-9.861492 2.513288 0.000000
0.045705 10.723942 0.000000
-3.164054 1.354066 0.000000
6.083645 5.345238 0.000000
-5.076621 -4.545816 0.000000
-5.347351 -2.390407 0.000000
-6.787024 -7.679130 0.000000
-0.825277 2.945307 0.000000
4.071834 7.455685 0.000000
7.530861 -4.299179 0.000000
6.835055 10.617898 0.000000
8.495842 6.199731 0.000000
-4.106142 -3.013042 0.000000
4.319555 -11.241651 0.000000
-5.215150 -11.657474 0.000000
0.258316 -15.244038 0.000000
3.128816 -6.170425 0.000000
-0.515892 5.197352 0.000000
0.789736 -0.674664 0.000000
12.610699 5.501283 0.000000
11.818550 -8.904715 0.000000
7.898731 -13.682244 0.000000
7.272520 4.000014 0.000000
-11.289785 -4.318026 0.000000
1.118186 8.766690 0.000000
-3.243161 -0.646894 0.000000
-12.657427 15.078869 0.000000
10.066059 -9.392781 0.000000
-3.647854 -2.389196 0.000000
4.365483 -5.978460 0.000000
-1.832210 -4.530652 0.000000
3.653023 0.570961 0.000000
5.973544 1.426736 0.000000
4.716862 -1.274884 0.000000
-1.151193 17.924868 0.000000
-7.242607 17.163897 0.000000
6.098502 6.412427 0.000000
1.131469 -6.323893 0.000000
-0.192373 -17.785780 0.000000
-2.936227 -2.750525 0.000000
0.613516 -13.927095 0.000000
-7.219491 1.667112 0.000000
-1.413602 6.852908 0.000000
-10.000024 -5.020184 0.000000
8.972279 8.953481 0.000000
-10.126405 1.878290 0.000000
7.691132 -0.385149 0.000000
5.476910 -3.104284 0.000000
-2.131752 3.018590 0.000000
0.153933 -7.734451 0.000000
-5.879553 -14.478459 0.000000
-7.081399 3.072862 0.000000
-6.015289 -6.118893 0.000000
4.909862 -12.054352 0.000000
-3.228010 9.955954 0.000000
-4.837402 -5.373251 0.000000
-3.859968 7.875995 0.000000
-12.013292 5.794408 0.000000
-7.822868 -2.684286 0.000000
10.604607 -9.003963 0.000000
-1.995406 10.927773 0.000000
1.128770 6.324343 0.000000
-2.591226 -7.128396 0.000000
-0.244216 -18.162645 0.000000
3.189287 -10.662161 0.000000
2.523416 5.324834 0.000000
-3.410546 -12.451990 0.000000
14.898099 -0.426041 0.000000
-1.590405 4.026546 0.000000
3.213198 10.749381 0.000000
-4.975286 -8.535569 0.000000
-1.787939 -17.993147 0.000000
-1.484887 6.028257 0.000000
6.068754 5.482822 0.000000
2.988720 -8.370014 0.000000
-5.982714 -13.318959 0.000000
6.616218 6.470487 0.000000
13.066966 2.437879 0.000000
2.303172 4.279704 0.000000
-3.654930 -6.175503 0.000000
-7.398837 -0.010189 0.000000
3.581766 8.176895 0.000000
2.811671 15.355240 0.000000
0.475410 0.620312 0.000000
-2.111541 4.234607 0.000000
-7.477535 11.746325 0.000000
2.653731 7.006661 0.000000
4.837053 -9.997753 0.000000
-5.527785 -12.740479 0.000000
-5.689170 -6.814876 0.000000
-3.189407 -6.756567 0.000000
8.357826 0.858222 0.000000
7.073004 -8.014296 0.000000
4.928076 -2.405873 0.000000
-4.350018 4.794781 0.000000
-2.550954 3.900216 0.000000
-3.954416 -0.158274 0.000000
-3.167914 -6.543502 0.000000
-3.588342 2.021516 0.000000
2.384573 -3.286319 0.000000
7.754112 -1.933786 0.000000
-10.818498 -3.919198 0.000000
12.159417 -4.021288 0.000000
2.453431 -2.606634 0.000000
-3.208817 14.090547 0.000000
1.468760 11.529419 0.000000
-8.008931 3.729019 0.000000
-13.067671 1.709730 0.000000
-7.831051 0.201804 0.000000
1.680750 0.928553 0.000000
-9.449561 -3.415200 0.000000
4.837053 9.997753 0.000000
-2.903625 -4.334344 0.000000
11.869081 -4.530869 0.000000
6.578876 -14.986151 0.000000
2.505270 -1.764837 0.000000
5.449140 9.250584 0.000000
2.750150 -1.784694 0.000000
-8.109934 8.368610 0.000000
-16.056622 3.075442 0.000000
3.061392 -10.578668 0.000000
-7.472206 -10.670710 0.000000
3.862790 -13.739185 0.000000
9.285419 11.126597 0.000000
-0.834655 -3.922987 0.000000
4.248083 5.670306 0.000000
-2.444420 9.487111 0.000000
0.990260 -10.538226 0.000000
7.391923 -3.148667 0.000000
8.029842 -0.361176 0.000000
5.598361 -8.199032 0.000000
-1.391291 4.768584 0.000000
4.077212 -2.658183 0.000000
1.386538 -8.915492 0.000000
0.924380 7.847885 0.000000
-14.045490 0.285674 0.000000
0.748563 7.928703 0.000000
-5.614603 -0.264529 0.000000
-3.936201 -8.251283 0.000000
-3.774481 -5.156368 0.000000
-0.677125 -3.550093 0.000000
-2.461766 -6.717449 0.000000
4.025349 -1.824807 0.000000
2.604049 -7.721100 0.000000
0.766752 6.400324 0.000000
-11.842316 9.918529 0.000000
-3.607526 8.327061 0.000000
-5.229965 -7.624772 0.000000
-12.490619 1.543857 0.000000
-7.507108 -4.234339 0.000000
-13.049751 1.588145 0.000000
-7.564647 1.916159 0.000000
-0.110667 4.937384 0.000000
-0.033577 9.852879 0.000000
4.524731 7.529035 0.000000
-10.960896 4.016431 0.000000
-0.480587 -5.570120 0.000000
-1.960191 4.208083 0.000000
-10.853451 2.670707 0.000000
1.243650 3.984518 0.000000
-3.933042 8.251870 0.000000
-1.013461 -2.224649 0.000000
1.885878 0.363963 0.000000
5.490980 -5.649089 0.000000
-9.486331 4.884209 0.000000
-2.488924 -8.583711 0.000000
-6.781472 2.171798 0.000000
10.506760 -5.695480 0.000000
-18.971676 -13.871281 0.000000
-5.506385 0.247267 0.000000
-9.531980 -7.212382 0.000000
-2.688465 -16.608013 0.000000
8.657796 1.156645 0.000000
9.164078 -17.209401 0.000000
2.311630 1.454219 0.000000
12.147643 -5.257336 0.000000
0.724469 -2.250159 0.000000
-1.133350 -11.424414 0.000000
-5.176506 -3.537536 0.000000
-4.956804 1.780048 0.000000
-4.797323 0.973167 0.000000
-8.080996 18.284121 0.000000
-8.486037 -1.820142 0.000000
-7.800908 6.454199 0.000000
-3.962293 9.996072 0.000000
3.504480 -1.393087 0.000000
-6.443952 6.606846 0.000000
-3.789653 -16.056595 0.000000
-5.286880 -10.632786 0.000000
-7.282645 -4.632151 0.000000
-1.183213 6.599953 0.000000
-2.437525 13.116715 0.000000
-10.003883 3.249972 0.000000
0.650671 -4.005572 0.000000
-8.152387 3.458202 0.000000
-7.293554 5.471605 0.000000
5.472706 -11.260579 0.000000
-1.664187 -5.259899 0.000000
1.241055 -0.570166 0.000000
0.114332 6.242238 0.000000
-4.995868 2.527444 0.000000
2.034717 13.160260 0.000000
3.772589 7.060736 0.000000
-16.496866 11.858834 0.000000
3.275210 6.552230 0.000000
-13.441610 -0.566489 0.000000
2.391309 1.496334 0.000000
0.405860 2.377499 0.000000
-7.309182 0.326179 0.000000
5.873097 -6.379613 0.000000
2.158955 11.813498 0.000000
-2.508937 11.302138 0.000000
-7.204851 -7.916795 0.000000
8.595700 -7.982225 0.000000
-1.486759 -7.851116 0.000000
0.681796 5.155904 0.000000
-10.388994 -3.392760 0.000000