# vtk DataFile Version 4.0
hesp visualization file
ASCII
DATASET UNSTRUCTURED_GRID
POINTS 1250 double
33.700220 3.121346 4.000000
30.700906 3.015797 4.000000
32.616719 3.959921 4.000000
32.270208 4.483162 4.000000
31.231006 6.168518 4.000000
30.379279 7.407960 4.000000
30.433254 7.857581 4.000000
30.433417 8.979697 4.000000
30.433418 10.102158 4.000000
30.433417 11.224620 4.000000
30.433417 12.347083 4.000000
30.433417 13.469545 4.000000
30.433417 14.592007 4.000000
30.433417 15.714469 4.000000
30.433417 16.836931 4.000000
30.433417 17.959393 4.000000
30.433418 19.081855 4.000000
30.433417 20.204317 4.000000
30.433254 21.326430 4.000000
30.378878 21.776501 4.000000
31.230054 23.015810 4.000000
32.238382 24.712876 4.000000
32.648406 25.227092 4.000000
30.649874 26.166144 4.000000
33.700131 26.062637 4.000000
30.633063 -5.212436 4.000000
33.616684 1.510593 4.000000
30.237565 1.190666 4.000000
30.998703 4.359043 4.000000
31.554528 6.558541 4.000000
31.521897 7.340853 4.000000
31.556723 7.854358 4.000000
30.892747 8.979789 4.000000
30.892599 10.102158 4.000000
30.892599 11.224620 4.000000
30.892599 12.347083 4.000000
30.892599 13.469545 4.000000
30.892599 14.592007 4.000000
30.892599 15.714469 4.000000
30.892599 16.836931 4.000000
30.892599 17.959393 4.000000
30.892599 19.081855 4.000000
30.892747 20.204225 4.000000
31.556720 21.329652 4.000000
31.522307 21.843238 4.000000
31.607720 22.592243 4.000000
31.000468 24.837005 4.000000
30.235446 27.991731 4.000000
33.616682 27.673421 4.000000
30.633063 34.396450 4.000000
31.285331 0.967838 4.000000
31.529435 3.166476 4.000000
31.552776 5.157126 4.000000
33.056159 5.501992 4.000000
30.178707 5.566669 4.000000
30.689470 7.566313 4.000000
31.981110 9.174202 4.000000
31.722010 8.974346 4.000000
31.759662 10.102156 4.000000
31.759661 11.224620 4.000000
31.759661 12.347083 4.000000
31.759661 13.469545 4.000000
31.759661 14.592007 4.000000
31.759661 15.714469 4.000000
31.759661 16.836931 4.000000
31.759661 17.959393 4.000000
31.759662 19.081857 4.000000
31.721642 20.209669 4.000000
31.981121 20.009747 4.000000
30.691070 21.616388 4.000000
30.178698 23.617261 4.000000
33.055450 23.680014 4.000000
31.570813 24.128257 4.000000
31.500798 25.975317 4.000000
31.285332 28.216177 4.000000
31.685300 -1.283864 4.000000
30.592431 -1.817539 4.000000
32.507814 3.339726 4.000000
32.362216 4.061999 4.000000
31.830004 5.689190 4.000000
31.254757 6.957739 4.000000
32.218619 7.867496 4.000000
32.217962 8.979408 4.000000
32.218609 10.102157 4.000000
32.218610 11.224620 4.000000
32.218610 12.347083 4.000000
32.218610 13.469545 4.000000
32.218610 14.592007 4.000000
32.218610 15.714469 4.000000
32.218610 16.836931 4.000000
32.218610 17.959393 4.000000
32.218609 19.081856 4.000000
32.217962 20.204604 4.000000
32.218619 21.316522 4.000000
31.241688 22.259239 4.000000
31.785297 23.508024 4.000000
32.424165 25.038930 4.000000
32.492541 25.784791 4.000000
30.592430 31.001552 4.000000
31.685300 30.467877 4.000000
34.311250 4.114203 4.000000
30.240119 3.323401 4.000000
30.924065 1.988876 4.000000
33.886443 4.751990 4.000000
32.594836 6.279437 4.000000
32.422878 6.733260 4.000000
33.079948 7.850741 4.000000
33.086250 8.979726 4.000000
33.086298 10.102158 4.000000
33.086299 11.224620 4.000000
33.086299 12.347083 4.000000
33.086299 13.469545 4.000000
33.086299 14.592007 4.000000
33.086299 15.714469 4.000000
33.086299 16.836931 4.000000
33.086299 17.959393 4.000000
33.086298 19.081855 4.000000
33.086250 20.204287 4.000000
33.079950 21.333269 4.000000
32.422820 22.450723 4.000000
32.477594 22.930564 4.000000
33.960990 24.349355 4.000000
30.924451 27.193504 4.000000
30.241781 25.858712 4.000000
34.310545 25.071186 4.000000
30.973721 -0.599111 4.000000
32.791050 -0.643028 4.000000
35.080525 4.462989 4.000000
32.568147 5.440286 4.000000
33.892836 6.630661 4.000000
33.527637 6.762961 4.000000
33.544783 7.857224 4.000000
33.544778 8.979697 4.000000
33.544779 10.102158 4.000000
33.544779 11.224620 4.000000
33.544779 12.347083 4.000000
33.544779 13.469545 4.000000
33.544779 14.592007 4.000000
33.544779 15.714469 4.000000
33.544779 16.836931 4.000000
33.544779 17.959393 4.000000
33.544779 19.081855 4.000000
33.544778 20.204317 4.000000
33.544783 21.326789 4.000000
33.543764 22.449173 4.000000
33.899736 22.577638 4.000000
32.527381 23.843290 4.000000
35.091648 24.732071 4.000000
32.791135 29.827064 4.000000
30.973720 29.783125 4.000000
31.928834 1.741678 4.000000
36.145333 2.598767 4.000000
31.988713 3.033875 4.000000
32.817123 4.482826 4.000000
33.633795 5.704150 4.000000
34.412369 6.733338 4.000000
34.413351 7.857239 4.000000
34.413353 8.979696 4.000000
34.413353 10.102158 4.000000
34.413353 11.224620 4.000000
34.413353 12.347083 4.000000
34.413353 13.469545 4.000000
34.413353 14.592007 4.000000
34.413353 15.714469 4.000000
34.413353 16.836931 4.000000
34.413353 17.959393 4.000000
34.413353 19.081855 4.000000
34.413353 20.204317 4.000000
34.413351 21.326774 4.000000
34.412587 22.450783 4.000000
33.645366 23.504372 4.000000
32.815341 24.692731 4.000000
31.988495 26.151012 4.000000
36.144963 26.585269 4.000000
31.929146 27.444751 4.000000
37.116430 -3.015088 4.000000
34.799560 4.345657 4.000000
35.584789 2.679063 4.000000
34.116862 5.649651 4.000000
35.535513 5.613243 4.000000
34.871405 6.734878 4.000000
34.871157 7.857234 4.000000
34.871157 8.979696 4.000000
34.871157 10.102158 4.000000
34.871157 11.224620 4.000000
34.871157 12.347083 4.000000
34.871157 13.469545 4.000000
34.871157 14.592007 4.000000
34.871157 15.714469 4.000000
34.871157 16.836931 4.000000
34.871157 17.959393 4.000000
34.871157 19.081855 4.000000
34.871157 20.204317 4.000000
34.871157 21.326780 4.000000
34.871408 22.449134 4.000000
35.535400 23.571112 4.000000
34.130749 23.485250 4.000000
35.583974 26.504558 4.000000
34.878786 24.809020 4.000000
37.116430 32.199101 4.000000
33.043243 3.608021 4.000000
34.565342 2.067505 4.000000
36.152056 3.459486 4.000000
36.073719 4.938616 4.000000
36.209450 5.714806 4.000000
35.741744 6.734690 4.000000
35.740698 7.857229 4.000000
35.740696 8.979696 4.000000
35.740696 10.102158 4.000000
35.740696 11.224620 4.000000
35.740696 12.347083 4.000000
35.740696 13.469545 4.000000
35.740696 14.592007 4.000000
35.740696 15.714469 4.000000
35.740696 16.836931 4.000000
35.740696 17.959393 4.000000
35.740696 19.081855 4.000000
35.740696 20.204317 4.000000
35.740698 21.326784 4.000000
35.741768 22.449319 4.000000
36.208918 23.470738 4.000000
36.075445 24.244054 4.000000
36.126280 25.744183 4.000000
34.565375 27.116373 4.000000
33.043417 25.575998 4.000000
32.523843 1.127410 4.000000
35.184289 -0.489686 4.000000
35.124123 3.273704 4.000000
35.895673 4.668822 4.000000
36.000396 7.130447 4.000000
36.194862 6.733435 4.000000
36.197704 7.857228 4.000000
36.197706 8.979696 4.000000
36.197706 10.102158 4.000000
36.197706 11.224620 4.000000
36.197706 12.347083 4.000000
36.197706 13.469545 4.000000
36.197706 14.592007 4.000000
36.197706 15.714469 4.000000
36.197706 16.836931 4.000000
36.197706 17.959393 4.000000
36.197706 19.081855 4.000000
36.197706 20.204317 4.000000
36.197704 21.326786 4.000000
36.194846 22.450547 4.000000
35.997822 22.053381 4.000000
35.889538 24.495423 4.000000
35.124715 25.909648 4.000000
35.184289 29.673698 4.000000
32.523843 28.056603 4.000000
33.323792 0.893398 4.000000
36.720938 1.917959 4.000000
37.144257 4.346793 4.000000
36.325342 4.342002 4.000000
36.529393 5.576449 4.000000
37.067241 6.735547 4.000000
37.068107 7.857234 4.000000
37.068108 8.979696 4.000000
37.068108 10.102158 4.000000
37.068108 11.224620 4.000000
37.068108 12.347083 4.000000
37.068108 13.469545 4.000000
37.068108 14.592007 4.000000
37.068108 15.714469 4.000000
37.068108 16.836931 4.000000
37.068108 17.959393 4.000000
37.068108 19.081855 4.000000
37.068108 20.204317 4.000000
37.068107 21.326780 4.000000
37.067248 22.448470 4.000000
36.531625 23.607397 4.000000
36.336628 24.857259 4.000000
37.145161 24.836757 4.000000
36.720895 27.266088 4.000000
33.323791 28.290616 4.000000
34.765920 1.123617 4.000000
36.603905 1.669760 4.000000
37.223209 5.934216 4.000000
37.633005 4.159166 4.000000
37.523220 5.611576 4.000000
37.524348 6.734771 4.000000
37.524349 7.857234 4.000000
37.524349 8.979696 4.000000
37.524349 10.102158 4.000000
37.524349 11.224620 4.000000
37.524349 12.347083 4.000000
37.524349 13.469545 4.000000
37.524349 14.592007 4.000000
37.524349 15.714469 4.000000
37.524349 16.836931 4.000000
37.524349 17.959393 4.000000
37.524349 19.081855 4.000000
37.524349 20.204317 4.000000
37.524349 21.326779 4.000000
37.524348 22.449242 4.000000
37.523295 23.572462 4.000000
37.623975 25.014404 4.000000
37.217661 23.242651 4.000000
36.604086 27.514358 4.000000
34.765920 28.060396 4.000000
35.892011 1.126020 4.000000
35.920606 2.145914 4.000000
37.962754 2.671063 4.000000
38.231840 4.697826 4.000000
38.394871 5.612764 4.000000
38.395343 6.734770 4.000000
38.395345 7.857234 4.000000
38.395345 8.979696 4.000000
38.395345 10.102158 4.000000
38.395345 11.224620 4.000000
38.395345 12.347083 4.000000
38.395345 13.469545 4.000000
38.395345 14.592007 4.000000
38.395345 15.714469 4.000000
38.395345 16.836931 4.000000
38.395345 17.959393 4.000000
38.395345 19.081855 4.000000
38.395345 20.204317 4.000000
38.395345 21.326779 4.000000
38.395343 22.449243 4.000000
38.394869 23.571236 4.000000
38.234614 24.495564 4.000000
37.961708 26.513178 4.000000
35.920680 27.038245 4.000000
35.892011 28.057993 4.000000
37.014450 1.125861 4.000000
37.806812 2.082611 4.000000
37.933470 3.432159 4.000000
38.851326 4.472379 4.000000
38.851013 5.612329 4.000000
38.851013 6.734772 4.000000
38.851013 7.857234 4.000000
38.851013 8.979696 4.000000
38.851013 10.102158 4.000000
38.851013 11.224620 4.000000
38.851013 12.347083 4.000000
38.851013 13.469545 4.000000
38.851013 14.592007 4.000000
38.851013 15.714469 4.000000
38.851013 16.836931 4.000000
38.851013 17.959393 4.000000
38.851013 19.081855 4.000000
38.851013 20.204317 4.000000
38.851013 21.326779 4.000000
[...]
POINT_DATA 1250
SCALARS m double
LOOKUP_TABLE default
1.000000
1.000000
1.000000
1.000000
1.000000
1.000000
1.000000
1.000000
1.000000
1.000000
1.000000
1.000000
1.000000
1.000000
1.000000
1.000000
1.000000
1.000000
1.000000
1.000000
1.000000
1.000000
1.000000
1.000000
1.000000
1.000000
1.000000
1.000000
1.000000
1.000000
1.000000
1.000000
1.000000
1.000000
1.000000
1.000000
1.000000
1.000000
1.000000
1.000000
1.000000
1.000000
1.000000
1.000000
1.000000
1.000000
1.000000
1.000000
1.000000
1.000000
1.000000
1.000000
1.000000
1.000000
1.000000
1.000000
1.000000
1.000000
1.000000
1.000000
1.000000
1.000000
1.000000
1.000000
1.000000
1.000000
1.000000
1.000000
1.000000
1.000000
1.000000
1.000000
1.000000
1.000000
1.000000
1.000000
1.000000
1.000000
1.000000
1.000000
1.000000
1.000000
1.000000
1.000000
1.000000
1.000000
1.000000
1.000000
1.000000
1.000000
1.000000
1.000000
1.000000
1.000000
1.000000
1.000000
1.000000
1.000000
1.000000
1.000000
1.000000
1.000000
1.000000
1.000000
1.000000
1.000000
1.000000
1.000000
1.000000
1.000000
1.000000
1.000000
1.000000
1.000000
1.000000
1.000000
1.000000
1.000000
1.000000
1.000000
1.000000
1.000000
1.000000
1.000000
1.000000
1.000000
1.000000
1.000000
1.000000
1.000000
1.000000
1.000000
1.000000
1.000000
1.000000
1.000000
1.000000
1.000000
1.000000
1.000000
1.000000
1.000000
1.000000
1.000000
1.000000
1.000000
1.000000
1.000000
1.000000
1.000000
1.000000
1.000000
1.000000
1.000000
1.000000
1.000000
1.000000
1.000000
1.000000
1.000000
1.000000
1.000000
1.000000
1.000000
1.000000
1.000000
1.000000
1.000000
1.000000
1.000000
1.000000
1.000000
1.000000
1.000000
1.000000
1.000000
1.000000
1.000000
1.000000
1.000000
1.000000
1.000000
1.000000
1.000000
1.000000
1.000000
1.000000
1.000000
1.000000
1.000000
1.000000
1.000000
1.000000
1.000000
1.000000
1.000000
1.000000
1.000000
1.000000
1.000000
1.000000
1.000000
1.000000
1.000000
1.000000
1.000000
1.000000
1.000000
1.000000
1.000000
1.000000
1.000000
1.000000
1.000000
1.000000
1.000000
1.000000
1.000000
1.000000
1.000000
1.000000
1.000000
1.000000
1.000000
1.000000
1.000000
1.000000
1.000000
1.000000
1.000000
1.000000
1.000000
1.000000
1.000000
1.000000
1.000000
1.000000
1.000000
1.000000
1.000000
1.000000
1.000000
1.000000
1.000000
1.000000
1.000000
1.000000
1.000000
1.000000
1.000000
1.000000
1.000000
1.000000
1.000000
1.000000
1.000000
1.000000
1.000000
1.000000
1.000000
1.000000
1.000000
1.000000
1.000000
1.000000
1.000000
1.000000
1.000000
1.000000
1.000000
1.000000
1.000000
1.000000
1.000000
1.000000
1.000000
1.000000
1.000000
1.000000
1.000000
1.000000
1.000000
1.000000
1.000000
1.000000
1.000000
1.000000
1.000000
1.000000
1.000000
1.000000
1.000000
1.000000
1.000000
1.000000
1.000000
1.000000
1.000000
1.000000
1.000000
1.000000
1.000000
1.000000
1.000000
1.000000
1.000000
1.000000
1.000000
1.000000
1.000000
1.000000
1.000000
1.000000
1.000000
1.000000
1.000000
1.000000
1.000000
1.000000
1.000000
1.000000
1.000000
1.000000
1.000000
1.000000
1.000000
1.000000
1.000000
1.000000
1.000000
1.000000
1.000000
1.000000
1.000000
1.000000
1.000000
1.000000
1.000000
1.000000
1.000000
1.000000
1.000000
1.000000
1.000000
1.000000
1.000000
1.000000
1.000000
1.000000
1.000000
1.000000
1.000000
1.000000
1.000000
1.000000
1.000000
1.000000
1.000000
1.000000
1.000000
1.000000
1.000000
1.000000
1.000000
1.000000
1.000000
1.000000
1.000000
1.000000
1.000000
1.000000
1.000000
1.000000
1.000000
1.000000
1.000000
1.000000
1.000000
1.000000
1.000000
1.000000
1.000000
1.000000
1.000000
1.000000
1.000000
1.000000
1.000000
1.000000
1.000000
1.000000
1.000000
1.000000
1.000000
1.000000
1.000000
1.000000
1.000000
1.000000
1.000000
1.000000
1.000000
1.000000
1.000000
1.000000
1.000000
1.000000
1.000000
1.000000
1.000000
1.000000
1.000000
1.000000
1.000000
1.000000
1.000000
1.000000
1.000000
1.000000
1.000000
1.000000
1.000000
1.000000
1.000000
1.000000
1.000000
1.000000
1.000000
1.000000
1.000000
1.000000
1.000000
1.000000
1.000000
1.000000
1.000000
1.000000
1.000000
1.000000
1.000000
1.000000
1.000000
1.000000
1.000000
1.000000
1.000000
1.000000
1.000000
1.000000
1.000000
1.000000
1.000000
1.000000
1.000000
1.000000
1.000000
1.000000
1.000000
1.000000
1.000000
1.000000
1.000000
1.000000
1.000000
1.000000
1.000000
1.000000
1.000000
1.000000
1.000000
1.000000
1.000000
1.000000
1.000000
1.000000
1.000000
1.000000
1.000000
1.000000
1.000000
1.000000
1.000000
1.000000
1.000000
1.000000
1.000000
1.000000
1.000000
1.000000
1.000000
1.000000
1.000000
1.000000
1.000000
1.000000
1.000000
1.000000
1.000000
1.000000
1.000000
1.000000
1.000000
1.000000
1.000000
1.000000
1.000000
1.000000
1.000000
1.000000
1.000000
1.000000
1.000000
1.000000
1.000000
1.000000
1.000000
1.000000
1.000000
1.000000
1.000000
1.000000
1.000000
1.000000
1.000000
1.000000
1.000000
1.000000
1.000000
1.000000
1.000000
1.000000
1.000000
1.000000
1.000000
1.000000
1.000000
1.000000
1.000000
1.000000
1.000000
1.000000
1.000000
1.000000
1.000000
1.000000
1.000000
1.000000
1.000000
1.000000
1.000000
1.000000
1.000000
1.000000
1.000000
1.000000
1.000000
1.000000
1.000000
1.000000
1.000000
1.000000
1.000000
1.000000
1.000000
1.000000
1.000000
1.000000
1.000000
1.000000
1.000000
1.000000
1.000000
1.000000
1.000000
1.000000
1.000000
1.000000
1.000000
1.000000
1.000000
1.000000
1.000000
1.000000
1.000000
1.000000
1.000000
1.000000
1.000000
1.000000
1.000000
1.000000
1.000000
1.000000
1.000000
1.000000
1.000000
1.000000
1.000000
1.000000
1.000000
1.000000
1.000000
1.000000
1.000000
1.000000
1.000000
1.000000
1.000000
1.000000
1.000000
1.000000
1.000000
1.000000
1.000000
1.000000
1.000000
1.000000
1.000000
1.000000
1.000000
1.000000
1.000000
1.000000
1.000000
1.000000
1.000000
1.000000
1.000000
1.000000
1.000000
1.000000
1.000000
1.000000
1.000000
1.000000
1.000000
1.000000
1.000000
1.000000
1.000000
1.000000
1.000000
1.000000
1.000000
1.000000
1.000000
1.000000
1.000000
1.000000
1.000000
1.000000
1.000000
1.000000
1.000000
1.000000
1.000000
1.000000
1.000000
1.000000
1.000000
1.000000
1.000000
1.000000
1.000000
1.000000
1.000000
1.000000
1.000000
1.000000
1.000000
1.000000
1.000000
1.000000
1.000000
1.000000
1.000000
1.000000
1.000000
1.000000
1.000000
1.000000
1.000000
1.000000
1.000000
1.000000
1.000000
1.000000
1.000000
1.000000
1.000000
1.000000
1.000000
1.000000
1.000000
1.000000
1.000000
1.000000
1.000000
1.000000
1.000000
1.000000
1.000000
1.000000
1.000000
1.000000
1.000000
1.000000
1.000000
1.000000
1.000000
1.000000
1.000000
1.000000
1.000000
1.000000
1.000000
1.000000
1.000000
1.000000
1.000000
1.000000
1.000000
1.000000
1.000000
1.000000
1.000000
1.000000
1.000000
1.000000
1.000000
1.000000
1.000000
1.000000
1.000000
1.000000
1.000000
1.000000
1.000000
1.000000
1.000000
1.000000
1.000000
1.000000
1.000000
1.000000
1.000000
1.000000
1.000000
1.000000
1.000000
1.000000
1.000000
1.000000
1.000000
1.000000
1.000000
1.000000
1.000000
1.000000
1.000000
1.000000
1.000000
1.000000
1.000000
1.000000
1.000000
1.000000
1.000000
1.000000
1.000000
1.000000
1.000000
1.000000
1.000000
1.000000
1.000000
1.000000
1.000000
1.000000
1.000000
1.000000
1.000000
1.000000
1.000000
1.000000
1.000000
1.000000
1.000000
1.000000
1.000000
1.000000
1.000000
1.000000
1.000000
1.000000
1.000000
1.000000
1.000000
1.000000
1.000000
1.000000
1.000000
1.000000
1.000000
1.000000
1.000000
1.000000
1.000000
1.000000
1.000000
1.000000
1.000000
1.000000
1.000000
1.000000
1.000000
1.000000
1.000000
1.000000
1.000000
1.000000
1.000000
1.000000
1.000000
1.000000
1.000000
1.000000
1.000000
1.000000
1.000000
1.000000
1.000000
1.000000
1.000000
1.000000
1.000000
1.000000
1.000000
1.000000
1.000000
1.000000
1.000000
1.000000
1.000000
1.000000
1.000000
1.000000
1.000000
1.000000
1.000000
1.000000
1.000000
1.000000
1.000000
1.000000
1.000000
1.000000
1.000000
1.000000
1.000000
1.000000
1.000000
1.000000
1.000000
1.000000
1.000000
1.000000
1.000000
1.000000
1.000000
1.000000
1.000000
1.000000
1.000000
1.000000
1.000000
1.000000
1.000000
1.000000
1.000000
1.000000
1.000000
1.000000
1.000000
1.000000
1.000000
1.000000
1.000000
1.000000
1.000000
1.000000
1.000000
1.000000
1.000000
1.000000
1.000000
1.000000
1.000000
1.000000
1.000000
1.000000
1.000000
1.000000
1.000000
1.000000
1.000000
1.000000
1.000000
1.000000
1.000000
1.000000
1.000000
1.000000
1.000000
1.000000
1.000000
1.000000
1.000000
1.000000
1.000000
1.000000
1.000000
1.000000
1.000000
1.000000
1.000000
1.000000
1.000000
1.000000
1.000000
1.000000
1.000000
1.000000
1.000000
1.000000
1.000000
1.000000
1.000000
1.000000
1.000000
1.000000
1.000000
1.000000
1.000000
1.000000
1.000000
1.000000
1.000000
1.000000
1.000000
1.000000
1.000000
1.000000
1.000000
1.000000
1.000000
1.000000
1.000000
1.000000
1.000000
1.000000
1.000000
1.000000
1.000000
1.000000
1.000000
1.000000
1.000000
1.000000
1.000000
1.000000
1.000000
1.000000
1.000000
1.000000
1.000000
1.000000
1.000000
1.000000
1.000000
1.000000
1.000000
1.000000
1.000000
1.000000
1.000000
1.000000
1.000000
1.000000
1.000000
1.000000
1.000000
1.000000
1.000000
1.000000
1.000000
1.000000
1.000000
1.000000
1.000000
1.000000
1.000000
1.000000
1.000000
1.000000
1.000000
1.000000
1.000000
1.000000
1.000000
1.000000
1.000000
1.000000
1.000000
1.000000
1.000000
1.000000
1.000000
1.000000
1.000000
1.000000
1.000000
1.000000
1.000000
1.000000
1.000000
1.000000
1.000000
1.000000
1.000000
1.000000
1.000000
1.000000
1.000000
1.000000
1.000000
1.000000
1.000000
1.000000
1.000000
1.000000
1.000000
1.000000
1.000000
1.000000
1.000000
1.000000
1.000000
1.000000
1.000000
1.000000
1.000000
1.000000
1.000000
1.000000
1.000000
1.000000
1.000000
1.000000
1.000000
1.000000
1.000000
1.000000
1.000000
1.000000
1.000000
1.000000
1.000000
1.000000
1.000000
1.000000
1.000000
1.000000
1.000000
1.000000
1.000000
1.000000
1.000000
1.000000
1.000000
1.000000
1.000000
1.000000
1.000000
1.000000
1.000000
1.000000
1.000000
1.000000
1.000000
1.000000
1.000000
1.000000
1.000000
1.000000
1.000000
1.000000
1.000000
1.000000
1.000000
1.000000
1.000000
1.000000
1.000000
1.000000
1.000000
1.000000
1.000000
1.000000
1.000000
1.000000
1.000000
1.000000
1.000000
1.000000
1.000000
1.000000
1.000000
1.000000
1.000000
1.000000
1.000000
1.000000
1.000000
1.000000
1.000000
1.000000
1.000000
1.000000
1.000000
1.000000
1.000000
1.000000
1.000000
1.000000
1.000000
1.000000
1.000000
1.000000
1.000000
1.000000
1.000000
1.000000
1.000000
1.000000
1.000000
1.000000
1.000000
1.000000
1.000000
1.000000
1.000000
1.000000
1.000000
1.000000
1.000000
1.000000
1.000000
1.000000
1.000000
1.000000
1.000000
1.000000
1.000000
1.000000
1.000000
1.000000
1.000000
1.000000
1.000000
1.000000
1.000000
1.000000
1.000000
1.000000
1.000000
1.000000
1.000000
1.000000
1.000000
1.000000
1.000000
1.000000
1.000000
1.000000
1.000000
1.000000
1.000000
1.000000
1.000000
1.000000
1.000000
1.000000
1.000000
1.000000
1.000000
1.000000
1.000000
1.000000
1.000000
1.000000
1.000000
1.000000
1.000000
1.000000
1.000000
1.000000
1.000000
1.000000
1.000000
1.000000
1.000000
1.000000
1.000000
1.000000
1.000000
1.000000
1.000000
1.000000
1.000000
1.000000
1.000000
1.000000
1.000000
1.000000
1.000000
1.000000
1.000000
1.000000
1.000000
1.000000
1.000000
1.000000
1.000000
1.000000
1.000000
1.000000
1.000000
1.000000
1.000000
1.000000
1.000000
1.000000
1.000000
1.000000
1.000000
1.000000
1.000000
1.000000
1.000000
VECTORS v double
3.523276 7.536641 0.000000
-6.473420 -7.936472 0.000000
8.967278 1.010388 0.000000
10.500479 -0.358862 0.000000
5.924261 -6.220508 0.000000
-2.481403 8.934015 0.000000
10.021517 -0.051528 0.000000
10.011002 0.000013 0.000000
10.011042 -0.000002 0.000000
10.011039 0.000000 0.000000
10.011039 0.000000 0.000000
10.011039 0.000000 0.000000
10.011039 -0.000000 0.000000
10.011039 -0.000000 0.000000
10.011039 -0.000000 0.000000
10.011039 -0.000000 0.000000
10.011042 0.000002 0.000000
10.011002 -0.000014 0.000000
10.021568 0.051217 0.000000
-2.476801 -8.931781 0.000000
5.896418 6.237271 0.000000
9.847228 0.564133 0.000000
12.645892 2.656336 0.000000
-6.560998 8.605930 0.000000
3.522877 -7.536772 0.000000
-2.631097 -13.726701 0.000000
8.123661 -2.628385 0.000000
-5.450133 -9.791831 0.000000
10.108486 1.539870 0.000000
0.374225 2.136705 0.000000
-2.581146 -4.791925 0.000000
10.037511 -0.101132 0.000000
-10.008346 0.002943 0.000000
-10.013071 -0.000023 0.000000
-10.013092 -0.000001 0.000000
-10.013093 0.000000 0.000000
-10.013093 0.000000 0.000000
-10.013093 -0.000000 0.000000
-10.013093 -0.000000 0.000000
-10.013093 -0.000000 0.000000
-10.013092 0.000001 0.000000
-10.013071 0.000023 0.000000
-10.008338 -0.002944 0.000000
10.037427 0.100927 0.000000
-2.573101 4.787983 0.000000
2.050723 -3.780734 0.000000
10.118015 -1.460854 0.000000
-5.462122 9.783327 0.000000
8.123655 2.628385 0.000000
-2.631097 13.726701 0.000000
9.310986 0.074833 0.000000
10.233894 1.748759 0.000000
0.782512 6.397178 0.000000
7.760189 1.322838 0.000000
-10.044337 -0.267155 0.000000
-3.798734 10.426095 0.000000
6.573266 19.312523 0.000000
5.199801 -0.884860 0.000000
10.010125 -0.000195 0.000000
10.010079 -0.000001 0.000000
10.010079 0.000000 0.000000
10.010079 0.000000 0.000000
10.010079 -0.000000 0.000000
10.010079 -0.000000 0.000000
10.010079 -0.000000 0.000000
10.010079 0.000001 0.000000
10.010125 0.000195 0.000000
5.167036 0.883725 0.000000
6.601805 -19.311992 0.000000
-3.786923 -10.439152 0.000000
-10.044439 0.266622 0.000000
7.502685 -0.966179 0.000000
0.815430 -5.220097 0.000000
9.510101 -2.801506 0.000000
9.311026 -0.074775 0.000000
-0.496488 -3.684145 0.000000
-6.835254 -10.619459 0.000000
-4.735436 -5.493162 0.000000
9.183464 -3.843591 0.000000
3.095152 -10.164630 0.000000
-12.356877 11.142575 0.000000
-10.000406 0.248976 0.000000
-9.963803 -0.079793 0.000000
-10.015514 -0.000161 0.000000
-10.015463 -0.000001 0.000000
-10.015463 0.000000 0.000000
-10.015463 0.000000 0.000000
-10.015463 -0.000000 0.000000
-10.015463 -0.000000 0.000000
-10.015463 -0.000000 0.000000
-10.015463 0.000001 0.000000
-10.015514 0.000161 0.000000
-9.964512 0.079359 0.000000
-10.000410 -0.248863 0.000000
-13.058469 -9.601509 0.000000
2.087861 10.386805 0.000000
6.873828 -0.855910 0.000000
-4.876233 5.014179 0.000000
-6.835259 10.619457 0.000000
-0.496486 3.684146 0.000000
-7.280010 9.614337 0.000000
-8.219780 4.315404 0.000000
-8.757622 -4.922818 0.000000
6.244142 -8.340346 0.000000
-6.429899 7.986916 0.000000
-9.992972 -0.042091 0.000000
9.919969 -0.197676 0.000000
10.009106 0.000912 0.000000
10.010546 -0.000017 0.000000
10.010563 -0.000000 0.000000
10.010563 0.000000 0.000000
10.010563 0.000000 0.000000
10.010563 -0.000000 0.000000
10.010563 -0.000000 0.000000
10.010563 -0.000000 0.000000
10.010563 0.000000 0.000000
10.010546 0.000017 0.000000
10.009108 -0.000911 0.000000
9.919986 0.197581 0.000000
-9.998855 0.041311 0.000000
-7.665379 -7.627375 0.000000
7.089348 7.450608 0.000000
-8.757160 4.903788 0.000000
-8.136944 -4.343980 0.000000
-7.312787 -9.549095 0.000000
-1.125361 -6.325575 0.000000
-1.992937 -10.927115 0.000000
-9.987782 0.088179 0.000000
-7.746792 10.548555 0.000000
4.249026 8.924851 0.000000
-11.261545 1.958736 0.000000
-10.016343 -0.000388 0.000000
-10.017381 0.000009 0.000000
-10.017382 -0.000002 0.000000
-10.017379 0.000000 0.000000
-10.017379 0.000000 0.000000
-10.017379 0.000000 0.000000
-10.017379 -0.000000 0.000000
-10.017379 -0.000000 0.000000
-10.017379 -0.000000 0.000000
-10.017379 -0.000000 0.000000
-10.017382 0.000002 0.000000
-10.017381 -0.000009 0.000000
-10.016342 0.000363 0.000000
-10.067315 -0.039763 0.000000
3.329054 -10.330902 0.000000
-7.835862 -10.128386 0.000000
-3.337268 -1.915642 0.000000
-1.992501 10.927239 0.000000
-1.125365 6.325577 0.000000
-0.158833 -4.341358 0.000000
1.448265 3.433577 0.000000
-9.613142 -1.163877 0.000000
-10.167075 0.118547 0.000000
-13.615472 2.932730 0.000000
9.956419 -0.056339 0.000000
10.012249 0.000128 0.000000
10.012265 -0.000005 0.000000
10.012273 0.000000 0.000000
10.012273 0.000000 0.000000
10.012273 0.000000 0.000000
10.012273 0.000000 0.000000
10.012273 -0.000000 0.000000
10.012273 -0.000000 0.000000
10.012273 -0.000000 0.000000
10.012273 -0.000000 0.000000
10.012273 -0.000000 0.000000
10.012265 0.000005 0.000000
10.012253 -0.000136 0.000000
9.965313 0.060650 0.000000
-13.199322 -2.138953 0.000000
-10.197349 -0.239291 0.000000
-9.618603 1.176559 0.000000
1.443234 -3.437419 0.000000
-0.156128 4.363027 0.000000
4.837053 -9.997753 0.000000
10.445222 1.764272 0.000000
1.698359 -3.381381 0.000000
-4.703586 6.364106 0.000000
9.989192 0.008481 0.000000
-10.012262 0.004027 0.000000
-10.018387 -0.000040 0.000000
-10.018423 -0.000001 0.000000
-10.018424 0.000000 0.000000
-10.018424 0.000000 0.000000
-10.018424 0.000000 0.000000
-10.018424 0.000000 0.000000
-10.018424 -0.000000 0.000000
-10.018424 -0.000000 0.000000
-10.018424 -0.000000 0.000000
-10.018424 -0.000000 0.000000
-10.018424 -0.000000 0.000000
-10.018423 0.000001 0.000000
-10.018386 0.000040 0.000000
-10.012240 -0.004051 0.000000
9.987142 -0.003715 0.000000
-4.937215 -7.330953 0.000000
1.694398 3.379403 0.000000
4.627577 0.144807 0.000000
4.837053 9.997753 0.000000
-5.873119 6.410078 0.000000
-9.861838 -1.571363 0.000000
6.372549 -7.047810 0.000000
0.254242 -5.961178 0.000000
-8.598660 5.068695 0.000000
10.095263 0.030668 0.000000
10.014830 -0.000634 0.000000
10.014590 -0.000003 0.000000
10.014590 0.000000 0.000000
10.014590 0.000000 0.000000
10.014590 0.000000 0.000000
10.014590 0.000000 0.000000
10.014590 -0.000000 0.000000
10.014590 -0.000000 0.000000
10.014590 -0.000000 0.000000
10.014590 -0.000000 0.000000
10.014590 -0.000000 0.000000
10.014590 0.000003 0.000000
10.014831 0.000640 0.000000
10.096924 -0.031613 0.000000
-8.653324 -4.981223 0.000000
0.279741 5.926402 0.000000
6.183977 7.195744 0.000000
-9.861540 1.570294 0.000000
-5.868678 -6.411990 0.000000
-9.995441 0.040307 0.000000
-3.933245 -8.257676 0.000000
2.675433 -3.371196 0.000000
8.736424 4.869525 0.000000
-1.319577 17.683499 0.000000
-10.187630 0.025020 0.000000
-10.018823 -0.000804 0.000000
-10.018588 -0.000003 0.000000
-10.018588 0.000000 0.000000
-10.018588 0.000000 0.000000
-10.018588 0.000000 0.000000
-10.018588 0.000000 0.000000
-10.018588 -0.000000 0.000000
-10.018588 -0.000000 0.000000
-10.018588 -0.000000 0.000000
-10.018588 -0.000000 0.000000
-10.018588 -0.000000 0.000000
-10.018588 0.000003 0.000000
-10.018824 0.000801 0.000000
-10.189522 -0.026168 0.000000
-1.351155 -17.680903 0.000000
8.591425 -5.316590 0.000000
2.684993 3.362748 0.000000
-3.933244 8.257671 0.000000
-9.995448 -0.040312 0.000000
-11.495505 -1.070554 0.000000
-10.862547 -5.068888 0.000000
-4.840101 8.601599 0.000000
-8.199843 -1.595365 0.000000
4.356369 -4.096538 0.000000
9.994310 0.023344 0.000000
10.016759 -0.000048 0.000000
10.016811 -0.000001 0.000000
10.016812 0.000000 0.000000
10.016812 0.000000 0.000000
10.016812 0.000000 0.000000
10.016812 0.000000 0.000000
10.016812 -0.000000 0.000000
10.016812 -0.000000 0.000000
10.016812 -0.000000 0.000000
10.016812 -0.000000 0.000000
10.016812 -0.000000 0.000000
10.016811 0.000001 0.000000
10.016760 0.000047 0.000000
9.994518 -0.023199 0.000000
4.432328 4.024848 0.000000
-8.071114 1.747912 0.000000
-4.828188 -8.606038 0.000000
-10.862326 5.065787 0.000000
-11.495508 1.070557 0.000000
-10.022289 -0.008032 0.000000
5.670913 -5.834324 0.000000
-0.769385 15.775517 0.000000
-7.157959 -7.111057 0.000000
-10.099440 0.012681 0.000000
-10.018120 -0.000272 0.000000
-10.018117 -0.000009 0.000000
-10.018111 -0.000000 0.000000
-10.018111 0.000000 0.000000
-10.018111 0.000000 0.000000
-10.018111 0.000000 0.000000
-10.018111 0.000000 0.000000
-10.018111 -0.000000 0.000000
-10.018111 -0.000000 0.000000
-10.018111 -0.000000 0.000000
-10.018111 -0.000000 0.000000
-10.018111 -0.000000 0.000000
-10.018111 0.000000 0.000000
-10.018117 0.000009 0.000000
-10.018128 0.000282 0.000000
-10.092004 -0.009715 0.000000
-7.372964 6.898116 0.000000
-0.835838 -15.856917 0.000000
5.671707 5.836609 0.000000
-10.022289 0.008032 0.000000
-9.998444 0.013698 0.000000
-8.975250 -3.499934 0.000000