# vtk DataFile Version 4.0
hesp visualization file
ASCII
DATASET UNSTRUCTURED_GRID
POINTS 1250 double
35.060444 1.351147 4.000000
30.348709 -0.340559 4.000000
34.311304 5.476675 4.000000
32.591882 7.475512 4.000000
32.223752 4.649152 4.000000
30.646442 12.556159 4.000000
33.545308 11.565700 4.000000
31.791735 11.995006 4.000000
30.717421 14.044397 4.000000
33.143856 12.299627 4.000000
31.546974 12.973705 4.000000
31.518261 14.472667 4.000000
31.820859 15.129495 4.000000
31.909199 15.550146 4.000000
31.851916 17.227954 4.000000
29.178103 16.544188 4.000000
31.386309 19.578853 4.000000
31.226123 16.341754 4.000000
29.377899 21.869900 4.000000
30.469117 18.314243 4.000000
33.733830 22.856781 4.000000
32.202290 29.127866 4.000000
34.296112 23.495899 4.000000
32.470134 30.387560 4.000000
31.495869 28.086272 4.000000
31.232418 -13.585724 4.000000
33.198349 0.404307 4.000000
33.290080 -4.728995 4.000000
30.470283 2.155152 4.000000
30.188858 7.639286 4.000000
30.433329 5.793332 4.000000
30.534390 7.876095 4.000000
31.168945 12.162364 4.000000
33.172456 13.633129 4.000000
31.095545 13.049876 4.000000
30.606424 13.163996 4.000000
31.723481 12.232341 4.000000
32.452489 14.844672 4.000000
32.057080 16.917963 4.000000
33.245437 16.020661 4.000000
30.496806 15.434747 4.000000
32.379727 16.866027 4.000000
32.965399 16.423662 4.000000
33.127589 19.175465 4.000000
31.060160 24.006475 4.000000
31.660385 24.261904 4.000000
31.413361 22.612286 4.000000
33.301240 33.904710 4.000000
31.611014 26.748268 4.000000
31.232418 42.769737 4.000000
31.860341 -4.227044 4.000000
35.319125 2.326865 4.000000
33.710514 2.541023 4.000000
29.980488 8.292002 4.000000
35.587206 3.988807 4.000000
31.008322 9.611934 4.000000
32.601271 9.183459 4.000000
30.522646 5.451508 4.000000
30.552872 12.314906 4.000000
33.554376 11.900269 4.000000
33.873775 11.882302 4.000000
29.787026 15.018388 4.000000
34.762282 14.146140 4.000000
34.257876 13.682551 4.000000
31.905740 14.514549 4.000000
32.469855 17.818697 4.000000
30.383269 19.686318 4.000000
31.882045 20.345900 4.000000
33.732745 18.823595 4.000000
32.791529 17.275125 4.000000
31.887508 25.984301 4.000000
33.218065 18.878721 4.000000
32.106521 22.561627 4.000000
33.920278 27.228601 4.000000
31.844340 33.399367 4.000000
31.455819 -3.499045 4.000000
33.794616 -8.294956 4.000000
31.502471 5.068617 4.000000
36.074545 2.688221 4.000000
30.193430 3.550202 4.000000
31.636761 4.263987 4.000000
30.220627 8.875718 4.000000
30.750258 10.236023 4.000000
34.119330 9.991577 4.000000
34.117081 7.787579 4.000000
33.771769 15.397721 4.000000
33.867668 14.732747 4.000000
34.614731 12.897380 4.000000
32.278688 15.645649 4.000000
34.691082 15.373727 4.000000
31.532052 17.670348 4.000000
35.868883 18.640190 4.000000
30.847111 15.075995 4.000000
31.026760 21.593671 4.000000
29.577348 19.564882 4.000000
36.289606 26.175969 4.000000
35.327033 28.226952 4.000000
29.979794 25.972077 4.000000
33.794621 37.478969 4.000000
31.451195 32.685069 4.000000
32.816711 2.027371 4.000000
30.643721 3.889114 4.000000
31.869722 -5.156955 4.000000
33.958595 6.446726 4.000000
30.770675 9.285627 4.000000
30.705877 10.713688 4.000000
33.013901 7.885288 4.000000
31.940913 9.318223 4.000000
33.347508 8.732365 4.000000
32.934697 12.670338 4.000000
30.644076 14.645094 4.000000
34.657392 11.444452 4.000000
35.323099 17.054737 4.000000
32.071622 15.353641 4.000000
31.096228 13.368389 4.000000
34.711262 14.462384 4.000000
31.375596 20.590153 4.000000
32.213022 18.181128 4.000000
32.993445 24.329965 4.000000
31.216568 21.437239 4.000000
30.634953 23.162194 4.000000
34.742115 24.411082 4.000000
34.992120 30.848241 4.000000
34.105116 26.683356 4.000000
30.368423 28.573504 4.000000
30.291733 -4.458943 4.000000
31.573867 -7.308582 4.000000
37.437476 5.528075 4.000000
30.322400 6.513060 4.000000
31.418773 6.204831 4.000000
31.270356 5.976124 4.000000
31.519147 7.824622 4.000000
32.480239 11.618101 4.000000
33.699979 10.731629 4.000000
34.659362 10.553302 4.000000
30.186989 12.691684 4.000000
34.805285 12.506796 4.000000
33.290992 15.178440 4.000000
33.665913 16.470315 4.000000
34.937804 11.301823 4.000000
34.554241 16.068601 4.000000
33.357078 18.538032 4.000000
34.212984 22.779004 4.000000
31.090668 20.277169 4.000000
29.584483 23.214106 4.000000
33.338059 18.112281 4.000000
30.841267 18.620589 4.000000
39.172136 23.651068 4.000000
31.574219 36.492695 4.000000
30.291721 33.642968 4.000000
30.829171 -0.269421 4.000000
36.530985 -1.192652 4.000000
32.243218 -0.959669 4.000000
33.444962 3.061983 4.000000
30.600304 11.061262 4.000000
31.030720 6.507919 4.000000
33.624672 8.625182 4.000000
36.600616 11.371907 4.000000
30.679228 7.416750 4.000000
32.247116 13.479333 4.000000
32.191354 11.035687 4.000000
35.181405 14.570046 4.000000
33.323257 13.207122 4.000000
31.488306 13.925909 4.000000
32.732475 21.731017 4.000000
30.629193 18.128784 4.000000
32.069830 24.030584 4.000000
34.413733 22.929146 4.000000
33.096106 22.552496 4.000000
30.466966 21.555309 4.000000
32.282043 25.291583 4.000000
34.346587 19.523491 4.000000
31.189516 26.763919 4.000000
33.371670 28.438362 4.000000
31.422159 29.895573 4.000000
40.067033 -9.113717 4.000000
33.854957 -0.734208 4.000000
39.195314 1.463547 4.000000
32.342585 7.336335 4.000000
32.185086 6.595963 4.000000
32.319860 4.916348 4.000000
34.271707 10.804322 4.000000
37.997301 9.248764 4.000000
31.337589 10.325218 4.000000
33.101352 12.871722 4.000000
32.785796 12.984005 4.000000
34.581624 11.804091 4.000000
34.155772 17.365832 4.000000
35.984813 17.649474 4.000000
38.224150 17.774973 4.000000
33.703368 17.802964 4.000000
34.935054 19.517338 4.000000
36.017882 18.962964 4.000000
35.574578 18.052406 4.000000
31.355003 21.106200 4.000000
34.400184 18.513825 4.000000
34.482166 20.814836 4.000000
35.110236 30.547486 4.000000
34.350866 20.377860 4.000000
40.067033 38.297730 4.000000
31.162585 1.173754 4.000000
30.111199 1.930590 4.000000
35.000144 -2.858321 4.000000
37.321074 7.455444 4.000000
31.858013 7.683345 4.000000
35.132015 6.129475 4.000000
31.215551 11.909439 4.000000
37.083982 9.518098 4.000000
35.725088 10.173889 4.000000
34.851962 9.658873 4.000000
35.894206 11.225655 4.000000
36.220815 15.254646 4.000000
37.078632 15.515001 4.000000
33.273316 15.472486 4.000000
32.497672 18.464300 4.000000
35.301501 18.632167 4.000000
34.394643 18.092553 4.000000
36.190017 16.946950 4.000000
31.035506 19.029062 4.000000
31.602426 19.834284 4.000000
33.891287 20.701616 4.000000
35.094023 25.961782 4.000000
37.491989 31.414259 4.000000
30.140561 29.378071 4.000000
33.208207 30.288089 4.000000
32.797313 0.521256 4.000000
32.784944 -5.526636 4.000000
33.722176 0.327215 4.000000
34.982752 3.722554 4.000000
34.062138 11.537850 4.000000
32.665886 4.604120 4.000000
37.311455 9.163696 4.000000
37.549155 11.538001 4.000000
34.901916 12.863060 4.000000
37.198525 11.619842 4.000000
34.755791 13.317284 4.000000
37.241689 13.813493 4.000000
35.055744 15.130916 4.000000
38.197410 17.516019 4.000000
37.168984 16.486494 4.000000
36.590046 14.533457 4.000000
36.521162 17.428353 4.000000
32.029674 19.739911 4.000000
33.681900 21.639382 4.000000
36.482745 23.096984 4.000000
35.612875 23.622643 4.000000
34.831694 25.739780 4.000000
33.637223 28.916073 4.000000
32.784957 34.710664 4.000000
32.735658 28.711387 4.000000
32.436791 -1.677374 4.000000
34.395764 -0.751855 4.000000
36.954492 3.217043 4.000000
34.081485 2.588084 4.000000
36.723386 5.228475 4.000000
38.565316 9.553484 4.000000
32.899295 8.280081 4.000000
35.790311 12.320031 4.000000
35.329892 9.875229 4.000000
38.282785 15.838561 4.000000
35.133081 12.767195 4.000000
35.476656 12.526762 4.000000
37.382566 13.309222 4.000000
35.481812 12.848551 4.000000
36.938725 17.621777 4.000000
38.487931 14.927692 4.000000
35.141084 17.705285 4.000000
35.264736 15.341871 4.000000
32.765513 20.578876 4.000000
35.396466 19.894650 4.000000
39.080124 22.149085 4.000000
31.623959 28.607856 4.000000
35.935591 24.457340 4.000000
33.718239 25.384127 4.000000
30.351418 29.547720 4.000000
30.434689 -2.829574 4.000000
33.671406 -2.578533 4.000000
36.350528 11.048947 4.000000
33.992064 2.187552 4.000000
37.997488 8.577160 4.000000
37.199245 7.763499 4.000000
36.804499 9.411557 4.000000
35.371954 7.929258 4.000000
36.202552 10.422212 4.000000
36.080530 12.499743 4.000000
38.576113 13.830739 4.000000
38.093853 14.081291 4.000000
38.026581 16.886461 4.000000
35.333683 15.956934 4.000000
37.065440 15.983230 4.000000
34.505707 17.766535 4.000000
37.442045 16.444741 4.000000
37.942785 20.283399 4.000000
39.479262 21.106206 4.000000
36.096670 23.524999 4.000000
36.338705 26.661705 4.000000
33.181241 27.445444 4.000000
38.642868 20.000067 4.000000
33.081851 31.400247 4.000000
30.435582 32.017424 4.000000
31.269888 0.076548 4.000000
31.837578 -2.365996 4.000000
40.116381 3.269570 4.000000
39.643185 5.720383 4.000000
38.556578 5.592929 4.000000
35.724289 6.454458 4.000000
35.508937 9.628187 4.000000
34.559337 8.779287 4.000000
35.703806 12.721961 4.000000
37.692556 11.813149 4.000000
38.323138 10.574481 4.000000
38.113958 12.382517 4.000000
38.927598 16.394468 4.000000
38.192081 14.287822 4.000000
38.148231 19.431372 4.000000
35.211733 18.226304 4.000000
34.912507 18.976022 4.000000
37.582367 20.103400 4.000000
37.484667 18.186517 4.000000
36.520203 24.553118 4.000000
38.639799 21.743906 4.000000
35.247511 20.333334 4.000000
37.428299 30.387762 4.000000
31.811981 31.619322 4.000000
30.567415 30.684202 4.000000
33.333149 -0.668259 4.000000
34.208698 1.914682 4.000000
34.266515 -1.030940 4.000000
35.754731 3.404644 4.000000
36.498759 4.624420 4.000000
38.885710 5.145157 4.000000
38.178421 6.957986 4.000000
39.307221 8.648147 4.000000
37.054371 10.437801 4.000000
37.446001 10.933042 4.000000
37.408999 12.157784 4.000000
39.835147 12.784776 4.000000
37.350518 14.604694 4.000000
38.517291 16.675426 4.000000
41.154449 16.477458 4.000000
36.633226 19.091189 4.000000
39.545724 17.402441 4.000000
36.435476 18.457919 4.000000
37.120580 20.914912 4.000000
[...]
POINT_DATA 1250
SCALARS m double
LOOKUP_TABLE default
1.000000
1.000000
1.000000
1.000000
1.000000
1.000000
1.000000
1.000000
1.000000
1.000000
1.000000
1.000000
1.000000
1.000000
1.000000
1.000000
1.000000
1.000000
1.000000
1.000000
1.000000
1.000000
1.000000
1.000000
1.000000
1.000000
1.000000
1.000000
1.000000
1.000000
1.000000
1.000000
1.000000
1.000000
1.000000
1.000000
1.000000
1.000000
1.000000
1.000000
1.000000
1.000000
1.000000
1.000000
1.000000
1.000000
1.000000
1.000000
1.000000
1.000000
1.000000
1.000000
1.000000
1.000000
1.000000
1.000000
1.000000
1.000000
1.000000
1.000000
1.000000
1.000000
1.000000
1.000000
1.000000
1.000000
1.000000
1.000000
1.000000
1.000000
1.000000
1.000000
1.000000
1.000000
1.000000
1.000000
1.000000
1.000000
1.000000
1.000000
1.000000
1.000000
1.000000
1.000000
1.000000
1.000000
1.000000
1.000000
1.000000
1.000000
1.000000
1.000000
1.000000
1.000000
1.000000
1.000000
1.000000
1.000000
1.000000
1.000000
1.000000
1.000000
1.000000
1.000000
1.000000
1.000000
1.000000
1.000000
1.000000
1.000000
1.000000
1.000000
1.000000
1.000000
1.000000
1.000000
1.000000
1.000000
1.000000
1.000000
1.000000
1.000000
1.000000
1.000000
1.000000
1.000000
1.000000
1.000000
1.000000
1.000000
1.000000
1.000000
1.000000
1.000000
1.000000
1.000000
1.000000
1.000000
1.000000
1.000000
1.000000
1.000000
1.000000
1.000000
1.000000
1.000000
1.000000
1.000000
1.000000
1.000000
1.000000
1.000000
1.000000
1.000000
1.000000
1.000000
1.000000
1.000000
1.000000
1.000000
1.000000
1.000000
1.000000
1.000000
1.000000
1.000000
1.000000
1.000000
1.000000
1.000000
1.000000
1.000000
1.000000
1.000000
1.000000
1.000000
1.000000
1.000000
1.000000
1.000000
1.000000
1.000000
1.000000
1.000000
1.000000
1.000000
1.000000
1.000000
1.000000
1.000000
1.000000
1.000000
1.000000
1.000000
1.000000
1.000000
1.000000
1.000000
1.000000
1.000000
1.000000
1.000000
1.000000
1.000000
1.000000
1.000000
1.000000
1.000000
1.000000
1.000000
1.000000
1.000000
1.000000
1.000000
1.000000
1.000000
1.000000
1.000000
1.000000
1.000000
1.000000
1.000000
1.000000
1.000000
1.000000
1.000000
1.000000
1.000000
1.000000
1.000000
1.000000
1.000000
1.000000
1.000000
1.000000
1.000000
1.000000
1.000000
1.000000
1.000000
1.000000
1.000000
1.000000
1.000000
1.000000
1.000000
1.000000
1.000000
1.000000
1.000000
1.000000
1.000000
1.000000
1.000000
1.000000
1.000000
1.000000
1.000000
1.000000
1.000000
1.000000
1.000000
1.000000
1.000000
1.000000
1.000000
1.000000
1.000000
1.000000
1.000000
1.000000
1.000000
1.000000
1.000000
1.000000
1.000000
1.000000
1.000000
1.000000
1.000000
1.000000
1.000000
1.000000
1.000000
1.000000
1.000000
1.000000
1.000000
1.000000
1.000000
1.000000
1.000000
1.000000
1.000000
1.000000
1.000000
1.000000
1.000000
1.000000
1.000000
1.000000
1.000000
1.000000
1.000000
1.000000
1.000000
1.000000
1.000000
1.000000
1.000000
1.000000
1.000000
1.000000
1.000000
1.000000
1.000000
1.000000
1.000000
1.000000
1.000000
1.000000
1.000000
1.000000
1.000000
1.000000
1.000000
1.000000
1.000000
1.000000
1.000000
1.000000
1.000000
1.000000
1.000000
1.000000
1.000000
1.000000
1.000000
1.000000
1.000000
1.000000
1.000000
1.000000
1.000000
1.000000
1.000000
1.000000
1.000000
1.000000
1.000000
1.000000
1.000000
1.000000
1.000000
1.000000
1.000000
1.000000
1.000000
1.000000
1.000000
1.000000
1.000000
1.000000
1.000000
1.000000
1.000000
1.000000
1.000000
1.000000
1.000000
1.000000
1.000000
1.000000
1.000000
1.000000
1.000000
1.000000
1.000000
1.000000
1.000000
1.000000
1.000000
1.000000
1.000000
1.000000
1.000000
1.000000
1.000000
1.000000
1.000000
1.000000
1.000000
1.000000
1.000000
1.000000
1.000000
1.000000
1.000000
1.000000
1.000000
1.000000
1.000000
1.000000
1.000000
1.000000
1.000000
1.000000
1.000000
1.000000
1.000000
1.000000
1.000000
1.000000
1.000000
1.000000
1.000000
1.000000
1.000000
1.000000
1.000000
1.000000
1.000000
1.000000
1.000000
1.000000
1.000000
1.000000
1.000000
1.000000
1.000000
1.000000
1.000000
1.000000
1.000000
1.000000
1.000000
1.000000
1.000000
1.000000
1.000000
1.000000
1.000000
1.000000
1.000000
1.000000
1.000000
1.000000
1.000000
1.000000
1.000000
1.000000
1.000000
1.000000
1.000000
1.000000
1.000000
1.000000
1.000000
1.000000
1.000000
1.000000
1.000000
1.000000
1.000000
1.000000
1.000000
1.000000
1.000000
1.000000
1.000000
1.000000
1.000000
1.000000
1.000000
1.000000
1.000000
1.000000
1.000000
1.000000
1.000000
1.000000
1.000000
1.000000
1.000000
1.000000
1.000000
1.000000
1.000000
1.000000
1.000000
1.000000
1.000000
1.000000
1.000000
1.000000
1.000000
1.000000
1.000000
1.000000
1.000000
1.000000
1.000000
1.000000
1.000000
1.000000
1.000000
1.000000
1.000000
1.000000
1.000000
1.000000
1.000000
1.000000
1.000000
1.000000
1.000000
1.000000
1.000000
1.000000
1.000000
1.000000
1.000000
1.000000
1.000000
1.000000
1.000000
1.000000
1.000000
1.000000
1.000000
1.000000
1.000000
1.000000
1.000000
1.000000
1.000000
1.000000
1.000000
1.000000
1.000000
1.000000
1.000000
1.000000
1.000000
1.000000
1.000000
1.000000
1.000000
1.000000
1.000000
1.000000
1.000000
1.000000
1.000000
1.000000
1.000000
1.000000
1.000000
1.000000
1.000000
1.000000
1.000000
1.000000
1.000000
1.000000
1.000000
1.000000
1.000000
1.000000
1.000000
1.000000
1.000000
1.000000
1.000000
1.000000
1.000000
1.000000
1.000000
1.000000
1.000000
1.000000
1.000000
1.000000
1.000000
1.000000
1.000000
1.000000
1.000000
1.000000
1.000000
1.000000
1.000000
1.000000
1.000000
1.000000
1.000000
1.000000
1.000000
1.000000
1.000000
1.000000
1.000000
1.000000
1.000000
1.000000
1.000000
1.000000
1.000000
1.000000
1.000000
1.000000
1.000000
1.000000
1.000000
1.000000
1.000000
1.000000
1.000000
1.000000
1.000000
1.000000
1.000000
1.000000
1.000000
1.000000
1.000000
1.000000
1.000000
1.000000
1.000000
1.000000
1.000000
1.000000
1.000000
1.000000
1.000000
1.000000
1.000000
1.000000
1.000000
1.000000
1.000000
1.000000
1.000000
1.000000
1.000000
1.000000
1.000000
1.000000
1.000000
1.000000
1.000000
1.000000
1.000000
1.000000
1.000000
1.000000
1.000000
1.000000
1.000000
1.000000
1.000000
1.000000
1.000000
1.000000
1.000000
1.000000
1.000000
1.000000
1.000000
1.000000
1.000000
1.000000
1.000000
1.000000
1.000000
1.000000
1.000000
1.000000
1.000000
1.000000
1.000000
1.000000
1.000000
1.000000
1.000000
1.000000
1.000000
1.000000
1.000000
1.000000
1.000000
1.000000
1.000000
1.000000
1.000000
1.000000
1.000000
1.000000
1.000000
1.000000
1.000000
1.000000
1.000000
1.000000
1.000000
1.000000
1.000000
1.000000
1.000000
1.000000
1.000000
1.000000
1.000000
1.000000
1.000000
1.000000
1.000000
1.000000
1.000000
1.000000
1.000000
1.000000
1.000000
1.000000
1.000000
1.000000
1.000000
1.000000
1.000000
1.000000
1.000000
1.000000
1.000000
1.000000
1.000000
1.000000
1.000000
1.000000
1.000000
1.000000
1.000000
1.000000
1.000000
1.000000
1.000000
1.000000
1.000000
1.000000
1.000000
1.000000
1.000000
1.000000
1.000000
1.000000
1.000000
1.000000
1.000000
1.000000
1.000000
1.000000
1.000000
1.000000
1.000000
1.000000
1.000000
1.000000
1.000000
1.000000
1.000000
1.000000
1.000000
1.000000
1.000000
1.000000
1.000000
1.000000
1.000000
1.000000
1.000000
1.000000
1.000000
1.000000
1.000000
1.000000
1.000000
1.000000
1.000000
1.000000
1.000000
1.000000
1.000000
1.000000
1.000000
1.000000
1.000000
1.000000
1.000000
1.000000
1.000000
1.000000
1.000000
1.000000
1.000000
1.000000
1.000000
1.000000
1.000000
1.000000
1.000000
1.000000
1.000000
1.000000
1.000000
1.000000
1.000000
1.000000
1.000000
1.000000
1.000000
1.000000
1.000000
1.000000
1.000000
1.000000
1.000000
1.000000
1.000000
1.000000
1.000000
1.000000
1.000000
1.000000
1.000000
1.000000
1.000000
1.000000
1.000000
1.000000
1.000000
1.000000
1.000000
1.000000
1.000000
1.000000
1.000000
1.000000
1.000000
1.000000
1.000000
1.000000
1.000000
1.000000
1.000000
1.000000
1.000000
1.000000
1.000000
1.000000
1.000000
1.000000
1.000000
1.000000
1.000000
1.000000
1.000000
1.000000
1.000000
1.000000
1.000000
1.000000
1.000000
1.000000
1.000000
1.000000
1.000000
1.000000
1.000000
1.000000
1.000000
1.000000
1.000000
1.000000
1.000000
1.000000
1.000000
1.000000
1.000000
1.000000
1.000000
1.000000
1.000000
1.000000
1.000000
1.000000
1.000000
1.000000
1.000000
1.000000
1.000000
1.000000
1.000000
1.000000
1.000000
1.000000
1.000000
1.000000
1.000000
1.000000
1.000000
1.000000
1.000000
1.000000
1.000000
1.000000
1.000000
1.000000
1.000000
1.000000
1.000000
1.000000
1.000000
1.000000
1.000000
1.000000
1.000000
1.000000
1.000000
1.000000
1.000000
1.000000
1.000000
1.000000
1.000000
1.000000
1.000000
1.000000
1.000000
1.000000
1.000000
1.000000
1.000000
1.000000
1.000000
1.000000
1.000000
1.000000
1.000000
1.000000
1.000000
1.000000
1.000000
1.000000
1.000000
1.000000
1.000000
1.000000
1.000000
1.000000
1.000000
1.000000
1.000000
1.000000
1.000000
1.000000
1.000000
1.000000
1.000000
1.000000
1.000000
1.000000
1.000000
1.000000
1.000000
1.000000
1.000000
1.000000
1.000000
1.000000
1.000000
1.000000
1.000000
1.000000
1.000000
1.000000
1.000000
1.000000
1.000000
1.000000
1.000000
1.000000
1.000000
1.000000
1.000000
1.000000
1.000000
1.000000
1.000000
1.000000
1.000000
1.000000
1.000000
1.000000
1.000000
1.000000
1.000000
1.000000
1.000000
1.000000
1.000000
1.000000
1.000000
1.000000
1.000000
1.000000
1.000000
1.000000
1.000000
1.000000
1.000000
1.000000
1.000000
1.000000
1.000000
1.000000
1.000000
1.000000
1.000000
1.000000
1.000000
1.000000
1.000000
1.000000
1.000000
1.000000
1.000000
1.000000
1.000000
1.000000
1.000000
1.000000
1.000000
1.000000
1.000000
1.000000
1.000000
1.000000
1.000000
1.000000
1.000000
1.000000
1.000000
1.000000
1.000000
1.000000
1.000000
1.000000
1.000000
1.000000
1.000000
1.000000
1.000000
1.000000
1.000000
1.000000
1.000000
1.000000
1.000000
1.000000
1.000000
1.000000
1.000000
1.000000
1.000000
1.000000
1.000000
1.000000
1.000000
1.000000
1.000000
1.000000
1.000000
1.000000
1.000000
1.000000
1.000000
1.000000
1.000000
1.000000
1.000000
1.000000
1.000000
1.000000
1.000000
1.000000
1.000000
1.000000
1.000000
1.000000
1.000000
1.000000
1.000000
1.000000
1.000000
1.000000
1.000000
1.000000
1.000000
1.000000
1.000000
1.000000
1.000000
1.000000
1.000000
1.000000
1.000000
1.000000
1.000000
1.000000
1.000000
1.000000
1.000000
1.000000
1.000000
1.000000
1.000000
1.000000
1.000000
1.000000
1.000000
1.000000
1.000000
1.000000
1.000000
1.000000
1.000000
1.000000
1.000000
1.000000
1.000000
1.000000
1.000000
1.000000
1.000000
1.000000
1.000000
1.000000
1.000000
1.000000
1.000000
1.000000
1.000000
1.000000
1.000000
1.000000
1.000000
1.000000
1.000000
1.000000
1.000000
1.000000
1.000000
1.000000
1.000000
1.000000
1.000000
1.000000
1.000000
1.000000
1.000000
1.000000
1.000000
1.000000
1.000000
1.000000
1.000000
1.000000
1.000000
1.000000
1.000000
1.000000
1.000000
1.000000
1.000000
1.000000
1.000000
1.000000
1.000000
1.000000
1.000000
1.000000
1.000000
1.000000
1.000000
1.000000
1.000000
1.000000
1.000000
1.000000
1.000000
1.000000
1.000000
1.000000
1.000000
1.000000
1.000000
1.000000
1.000000
1.000000
1.000000
1.000000
1.000000
1.000000
1.000000
1.000000
1.000000
1.000000
1.000000
1.000000
1.000000
1.000000
1.000000
1.000000
1.000000
1.000000
1.000000
1.000000
1.000000
1.000000
1.000000
1.000000
1.000000
1.000000
1.000000
1.000000
1.000000
1.000000
1.000000
1.000000
1.000000
1.000000
1.000000
1.000000
1.000000
1.000000
1.000000
1.000000
1.000000
1.000000
1.000000
VECTORS v double
4.968045 -1.625941 0.000000
2.831666 -3.541768 0.000000
-2.979176 4.995357 0.000000
-6.071957 -1.076284 0.000000
4.304241 -6.917538 0.000000
0.449262 12.001560 0.000000
-20.502809 -17.347158 0.000000
3.579168 -3.464835 0.000000
5.474847 9.822113 0.000000
7.197905 7.095179 0.000000
6.394081 -5.581174 0.000000
7.562835 5.066672 0.000000
7.586479 -1.219273 0.000000
1.290432 15.485148 0.000000
-3.307005 4.022844 0.000000
-5.691917 -4.620645 0.000000
-6.625044 -7.717456 0.000000
8.940912 -10.678167 0.000000
-5.781416 3.815842 0.000000
-4.949075 -4.754122 0.000000
-0.037332 -9.116157 0.000000
7.295998 7.456306 0.000000
2.345125 -2.528653 0.000000
-3.498758 0.427306 0.000000
-2.093611 1.968608 0.000000
2.630965 -13.726701 0.000000
0.868194 2.908168 0.000000
5.360524 -9.594460 0.000000
6.691216 0.531487 0.000000
-0.334058 5.881263 0.000000
-1.548027 -8.267712 0.000000
8.245718 -0.948580 0.000000
-3.162026 11.603906 0.000000
2.569103 4.964071 0.000000
-1.223731 12.753965 0.000000
-8.078276 1.737638 0.000000
-14.585222 -0.405325 0.000000
-3.799916 3.737488 0.000000
1.751021 8.282594 0.000000
7.108851 -1.277839 0.000000
-4.517298 -13.505404 0.000000
-4.256356 -3.290544 0.000000
8.716996 -7.253122 0.000000
13.097058 0.410964 0.000000
1.260609 0.129474 0.000000
4.284060 -12.600524 0.000000
-3.750739 -8.818065 0.000000
5.385599 9.585143 0.000000
-0.924704 8.008557 0.000000
2.630965 13.726701 0.000000
-0.081142 -9.566003 0.000000
13.274813 -9.127877 0.000000
4.184001 -9.817374 0.000000
-3.329387 -1.757748 0.000000
5.711376 -9.778012 0.000000
5.082037 1.005079 0.000000
-5.356634 -6.793685 0.000000
7.781860 -2.486913 0.000000
4.357640 25.506145 0.000000
-3.543734 2.241335 0.000000
2.789263 2.913321 0.000000
-12.553872 5.572709 0.000000
12.436726 -3.204636 0.000000
9.582978 -10.653758 0.000000
-0.528515 -9.668133 0.000000
-4.095412 -3.163353 0.000000
-11.010415 6.257538 0.000000
-6.662349 1.714713 0.000000
-11.368718 5.727259 0.000000
13.158536 -9.239940 0.000000
3.551360 -0.661888 0.000000
-0.873819 -10.463671 0.000000
3.500212 2.352084 0.000000
-3.548624 10.733451 0.000000
-0.276811 9.465979 0.000000
0.042362 -3.590203 0.000000
6.835050 -10.617898 0.000000
-4.012182 6.687502 0.000000
6.025500 -2.456082 0.000000
9.072308 3.690057 0.000000
-3.534889 -5.187026 0.000000
-1.226018 -8.720914 0.000000
-3.812367 9.041339 0.000000
-6.674900 -7.775924 0.000000
2.493003 -17.014558 0.000000
-15.806513 -1.871971 0.000000
1.586169 -0.694018 0.000000
-7.984404 -16.116947 0.000000
2.279425 0.946400 0.000000
0.959076 10.244543 0.000000
-4.186739 0.515454 0.000000
-3.389855 -4.980212 0.000000
3.861132 -19.740046 0.000000
2.844869 12.428334 0.000000
1.446622 -10.021428 0.000000
1.392294 7.242331 0.000000
4.173337 7.038708 0.000000
-6.037840 8.558844 0.000000
6.835055 10.617898 0.000000
0.016512 3.597814 0.000000
-4.973107 -0.424348 0.000000
6.616068 -6.534337 0.000000
-3.414482 -18.516579 0.000000
-5.842536 -5.577688 0.000000
-0.707473 -5.534670 0.000000
-1.166545 7.563663 0.000000
2.353472 -1.281291 0.000000
12.489747 5.676940 0.000000
-12.156406 6.876772 0.000000
2.077622 2.576995 0.000000
5.366866 1.628988 0.000000
-0.517237 3.261730 0.000000
6.422202 3.068077 0.000000
-2.963219 -8.367854 0.000000
-8.561362 1.488582 0.000000
8.714499 0.428689 0.000000
-5.119049 -4.389776 0.000000
8.618565 -11.100498 0.000000
7.022481 5.925207 0.000000
0.811918 1.127087 0.000000
5.970392 1.343256 0.000000
0.068407 -4.286309 0.000000
2.756565 16.831841 0.000000
4.271548 10.997193 0.000000
-8.379493 6.271676 0.000000
-1.141764 -6.326967 0.000000
-1.995844 -10.927655 0.000000
4.346213 -4.616713 0.000000
-12.385083 0.858194 0.000000
2.066510 -8.623882 0.000000
6.674264 2.509683 0.000000
10.473426 -1.722160 0.000000
1.288469 5.825109 0.000000
10.891460 -0.448728 0.000000
-2.979164 -16.962618 0.000000
-8.072521 -7.568579 0.000000
6.096698 -7.916876 0.000000
11.911391 13.189817 0.000000
-10.557931 -9.502584 0.000000
1.622777 -4.740158 0.000000
2.025643 10.648446 0.000000
4.642795 3.653575 0.000000
0.317854 9.991785 0.000000
-2.433994 -2.749773 0.000000
-3.164239 7.961027 0.000000
-9.040855 1.080874 0.000000
-4.549614 -8.896284 0.000000
10.660987 -8.804159 0.000000
-1.995406 10.927783 0.000000
-1.141826 6.326989 0.000000
4.666577 -6.151222 0.000000
-0.672555 -18.200366 0.000000
-4.238120 -1.437033 0.000000
-4.784662 -2.226363 0.000000
-8.447547 -5.299443 0.000000
-4.000238 -0.877479 0.000000
4.010494 -6.034983 0.000000
15.094810 -0.173785 0.000000
-9.576531 -3.726636 0.000000
-9.030159 12.297227 0.000000
3.353473 -8.620196 0.000000
6.211520 5.752317 0.000000
-1.620651 -3.976054 0.000000
-10.279045 -4.832696 0.000000
-3.604664 14.519270 0.000000
-4.490401 1.659585 0.000000
-0.025535 2.322814 0.000000
-4.579901 16.128975 0.000000
-0.596923 -6.564187 0.000000
-2.500136 -6.530944 0.000000
3.257370 15.280771 0.000000
-4.397489 -4.940964 0.000000
-0.150225 7.895088 0.000000
-7.581120 14.789519 0.000000
2.512287 7.172197 0.000000
4.837053 -9.997753 0.000000
-1.991621 -9.068513 0.000000
-10.709443 -5.576701 0.000000
5.293699 -0.199619 0.000000
-8.125069 3.990977 0.000000
-1.470063 -2.766745 0.000000
-10.490420 -7.987250 0.000000
3.669902 0.305650 0.000000
-2.545859 3.873774 0.000000
3.397614 11.935173 0.000000
5.448797 6.630540 0.000000
3.097665 -11.624266 0.000000
-9.455727 14.607539 0.000000
18.482878 2.632353 0.000000
-13.337289 -3.462931 0.000000
6.254549 -7.199242 0.000000
5.363040 -3.119768 0.000000
-3.371272 14.172544 0.000000
-8.697933 -8.566874 0.000000
-4.030139 0.736502 0.000000
0.568867 4.627765 0.000000
-2.617483 -12.676931 0.000000
1.618346 0.911477 0.000000
-4.344432 -12.403011 0.000000
4.837053 9.997753 0.000000
-2.900877 -4.337284 0.000000
-4.601094 -2.904283 0.000000
-5.555722 -11.588749 0.000000
0.640042 -9.386624 0.000000
-7.649364 1.779697 0.000000
-2.441614 -2.896171 0.000000
-6.698112 4.154282 0.000000
3.573306 -5.759705 0.000000
4.084441 -1.830224 0.000000
3.198120 -12.227702 0.000000
4.558895 -7.482193 0.000000
6.846417 2.914226 0.000000
12.526656 14.755696 0.000000
-8.351505 -0.349848 0.000000
-10.559074 7.724931 0.000000
4.166460 1.577725 0.000000
-2.212095 -10.513115 0.000000
3.377571 -8.554003 0.000000
-0.577763 2.850669 0.000000
-0.103453 3.225623 0.000000
3.922628 -2.543881 0.000000
-8.738686 -2.746554 0.000000
0.934090 7.853914 0.000000
-6.859870 -5.937170 0.000000
0.404523 8.140400 0.000000
1.818533 -0.984021 0.000000
-3.933651 -8.253472 0.000000
-7.040740 -6.521007 0.000000
-0.674359 -3.559666 0.000000
17.396705 -0.061764 0.000000
-13.774590 -6.325467 0.000000
-4.534486 10.257398 0.000000
10.042697 5.049272 0.000000
6.073235 -1.257219 0.000000
-1.232806 -10.688177 0.000000
-8.804001 -0.800366 0.000000
7.433496 0.970948 0.000000
-12.186586 -4.568652 0.000000
9.212813 1.413091 0.000000
4.572205 -1.808939 0.000000
-4.646308 -5.458638 0.000000
-8.182524 8.823443 0.000000
-5.147249 -6.939630 0.000000
-7.873992 9.718594 0.000000
2.564149 -1.795398 0.000000
-1.985476 4.320164 0.000000
-7.348816 4.321500 0.000000
-7.319179 6.984074 0.000000
-3.933217 8.253986 0.000000
-1.341464 -2.296286 0.000000
-6.816133 -14.167091 0.000000
-10.858104 -4.390322 0.000000
3.158707 2.998395 0.000000
-2.755579 -1.435611 0.000000
-3.577591 3.988767 0.000000
6.297719 7.158459 0.000000
-10.410762 2.039833 0.000000
1.703535 5.792922 0.000000
-4.138950 3.955919 0.000000
12.517088 11.075786 0.000000
0.375090 -0.457826 0.000000
-5.144266 -17.215695 0.000000
-7.725949 -2.375182 0.000000
-19.624588 -0.710285 0.000000
3.853605 -6.346337 0.000000
6.975558 -2.116360 0.000000
-6.802405 -3.463357 0.000000
-1.807097 -7.683703 0.000000
-7.763013 1.788811 0.000000
-3.534209 -4.823030 0.000000
-8.352175 -2.541232 0.000000
-7.789567 6.468343 0.000000
5.034192 8.319230 0.000000
-11.560994 4.244142 0.000000
1.510870 7.438228 0.000000
7.980031 -7.180656 0.000000
6.845560 -14.032649 0.000000
-17.897965 5.728123 0.000000
3.253120 -7.180404 0.000000
-0.734637 13.475319 0.000000
-10.113702 3.420144 0.000000
-4.172985 3.225442 0.000000
-6.081304 0.915059 0.000000
5.138385 9.811030 0.000000
3.984678 12.677496 0.000000
-6.639081 8.467110 0.000000
1.643731 6.128805 0.000000
1.308433 11.561484 0.000000
-7.432990 2.735860 0.000000
7.846116 1.433325 0.000000
-4.926559 -3.033912 0.000000
18.570802 -11.929194 0.000000
4.299233 5.128687 0.000000
-6.732719 14.558781 0.000000
-5.336216 -2.889900 0.000000
0.991756 9.767915 0.000000
-7.896193 2.367105 0.000000
9.289961 -1.546057 0.000000
2.161039 11.815439 0.000000
7.983661 7.191066 0.000000
4.286213 -10.068741 0.000000
-8.551833 -9.251579 0.000000
3.612019 0.800973 0.000000
-8.751080 3.549227 0.000000
-6.121988 -2.087277 0.000000
1.651130 1.420129 0.000000