# vtk DataFile Version 4.0
hesp visualization file
ASCII
DATASET UNSTRUCTURED_GRID
POINTS 1250 double
33.354768 -2.288656 4.000000
31.329507 -1.526573 4.000000
33.649192 6.563761 4.000000
33.318833 7.880730 4.000000
28.707505 4.670231 4.000000
29.875450 14.085921 4.000000
31.118791 8.787865 4.000000
33.294937 9.869618 4.000000
33.471345 15.440363 4.000000
34.409998 13.510499 4.000000
33.514221 11.051647 4.000000
31.975442 15.421574 4.000000
32.493051 15.784669 4.000000
30.132462 16.890984 4.000000
31.261446 18.184037 4.000000
28.988355 16.116090 4.000000
31.495119 19.682077 4.000000
34.186981 16.511228 4.000000
27.632737 23.065901 4.000000
28.895172 17.105056 4.000000
35.256562 23.916642 4.000000
30.578828 31.497307 4.000000
35.043856 25.268381 4.000000
31.538504 31.731198 4.000000
30.902392 29.620248 4.000000
32.100636 -18.115535 4.000000
31.558234 1.326921 4.000000
35.058911 -7.895286 4.000000
31.937547 1.657773 4.000000
26.513853 9.294988 4.000000
30.534514 3.325792 4.000000
33.236206 7.576438 4.000000
31.567434 11.983564 4.000000
33.467084 12.402247 4.000000
31.803813 12.790583 4.000000
30.589774 11.833446 4.000000
27.559122 12.495392 4.000000
34.422303 15.281162 4.000000
31.411645 16.809707 4.000000
35.311094 15.112565 4.000000
30.941682 14.340689 4.000000
32.507425 17.616289 4.000000
31.265220 16.424275 4.000000
32.890756 20.756235 4.000000
31.476272 24.048235 4.000000
31.413261 25.084987 4.000000
32.446956 20.018625 4.000000
35.078245 37.067101 4.000000
31.477716 29.370331 4.000000
32.100636 47.299549 4.000000
31.833355 -7.383773 4.000000
34.158314 1.997316 4.000000
32.172453 1.181453 4.000000
28.652804 8.309707 4.000000
34.920468 -0.179141 4.000000
30.281421 10.824346 4.000000
31.394662 8.299029 4.000000
30.229846 6.040772 4.000000
30.069056 14.839582 4.000000
32.841678 11.137819 4.000000
31.356749 13.129013 4.000000
25.860472 16.132172 4.000000
36.645680 14.510558 4.000000
36.507799 14.219511 4.000000
33.925774 13.456068 4.000000
33.440446 15.083870 4.000000
30.268128 20.617827 4.000000
29.955765 20.883577 4.000000
30.405655 19.541149 4.000000
36.000394 14.652522 4.000000
30.749531 25.561890 4.000000
31.106661 19.362884 4.000000
32.638377 21.654357 4.000000
32.718661 30.546067 4.000000
31.752761 36.522821 4.000000
32.150604 -6.179208 4.000000
36.050183 -11.798863 4.000000
31.872930 4.553839 4.000000
37.879506 2.271105 4.000000
30.085513 2.026867 4.000000
32.291547 2.301934 4.000000
29.556104 7.677297 4.000000
29.589776 12.213408 4.000000
31.957864 7.882984 4.000000
34.365922 2.291002 4.000000
36.779562 15.525777 4.000000
33.180905 14.269409 4.000000
36.576483 10.092140 4.000000
30.618046 16.037230 4.000000
35.654159 16.221014 4.000000
29.583931 17.732209 4.000000
35.952301 18.434048 4.000000
32.002520 11.785018 4.000000
28.763893 23.493202 4.000000
30.776196 17.782750 4.000000
36.445310 27.974484 4.000000
36.688126 30.642862 4.000000
30.975106 27.534415 4.000000
36.050189 40.982875 4.000000
33.326537 34.464156 4.000000
31.289770 1.536604 4.000000
32.679201 1.371406 4.000000
30.606849 -10.741317 4.000000
31.554288 3.912936 4.000000
31.445740 7.493797 4.000000
30.749917 12.465848 4.000000
33.491892 7.427144 4.000000
36.085683 11.155008 4.000000
34.510429 7.923356 4.000000
34.430108 10.229630 4.000000
31.758912 15.097378 4.000000
32.004891 8.707678 4.000000
36.686906 18.789038 4.000000
32.920837 16.120376 4.000000
26.322201 17.743775 4.000000
37.143705 12.748880 4.000000
30.239623 19.806373 4.000000
31.853102 18.461229 4.000000
32.960854 23.593501 4.000000
32.206780 21.450248 4.000000
32.602001 23.625055 4.000000
34.609249 23.275661 4.000000
34.787964 36.701646 4.000000
32.868087 28.962538 4.000000
30.523098 29.891258 4.000000
30.397840 -6.547440 4.000000
31.052122 -11.440559 4.000000
38.126241 5.837738 4.000000
28.491461 4.057926 4.000000
32.411976 6.256600 4.000000
31.054868 7.265029 4.000000
29.478600 8.507422 4.000000
33.071903 13.005696 4.000000
31.212394 11.758438 4.000000
32.697594 7.907380 4.000000
29.669474 11.389416 4.000000
34.230434 12.323528 4.000000
32.306062 13.357890 4.000000
34.373464 13.756866 4.000000
31.805167 10.655531 4.000000
34.034358 14.936502 4.000000
35.270451 16.712700 4.000000
33.172427 25.298427 4.000000
29.817031 18.662195 4.000000
28.433220 25.818709 4.000000
29.647558 19.120716 4.000000
29.102030 18.345609 4.000000
42.677181 20.691818 4.000000
30.915736 40.098861 4.000000
30.394389 35.729225 4.000000
30.832940 -2.504807 4.000000
36.400044 -7.190669 4.000000
32.557943 -3.562093 4.000000
32.603921 3.083496 4.000000
28.001860 9.172724 4.000000
32.456812 5.948051 4.000000
33.560275 8.143529 4.000000
37.503554 14.176367 4.000000
28.597824 5.136011 4.000000
31.134914 9.474197 4.000000
30.416703 10.090266 4.000000
36.926599 16.243143 4.000000
34.008580 13.803492 4.000000
29.096224 15.325745 4.000000
34.356992 24.760511 4.000000
33.317895 17.600640 4.000000
32.273589 24.984542 4.000000
34.394239 21.912889 4.000000
29.903190 21.149310 4.000000
30.905645 22.485978 4.000000
33.259438 30.346737 4.000000
33.321120 18.066561 4.000000
30.842306 28.653588 4.000000
31.550066 30.597134 4.000000
32.282699 32.230280 4.000000
41.663260 -12.412976 4.000000
32.207512 -4.653762 4.000000
36.426582 -0.576612 4.000000
31.414244 5.222172 4.000000
30.899925 7.605480 4.000000
33.392420 3.176726 4.000000
35.798577 9.095104 4.000000
36.876418 10.569610 4.000000
30.482404 11.492356 4.000000
33.878910 12.821998 4.000000
32.089601 12.859110 4.000000
33.562343 12.780696 4.000000
34.116490 17.999823 4.000000
36.974278 19.928921 4.000000
34.320031 17.015029 4.000000
34.875687 15.931426 4.000000
36.274762 18.319582 4.000000
34.740437 23.056183 4.000000
34.850260 20.005757 4.000000
29.577846 21.180024 4.000000
32.323568 19.380561 4.000000
32.565058 19.784877 4.000000
35.561102 31.018560 4.000000
32.060462 17.940176 4.000000
41.663260 41.596989 4.000000
30.203808 -0.256753 4.000000
34.032152 0.773209 4.000000
36.079318 -7.497402 4.000000
37.638207 4.876701 4.000000
34.022809 7.742142 4.000000
35.374705 5.362218 4.000000
29.104323 13.475040 4.000000
35.696073 11.563789 4.000000
37.245750 8.561382 4.000000
34.614008 5.963688 4.000000
35.811871 7.234744 4.000000
37.829709 16.113327 4.000000
39.551523 15.422690 4.000000
34.462169 16.586310 4.000000
31.265671 19.038011 4.000000
36.149874 17.004804 4.000000
34.451268 17.448719 4.000000
37.135207 15.828016 4.000000
30.899284 16.694725 4.000000
31.381313 21.125759 4.000000
35.227230 19.824130 4.000000
34.426819 24.253100 4.000000
37.797778 34.004352 4.000000
25.856901 29.138771 4.000000
33.389227 32.939294 4.000000
31.945445 0.397454 4.000000
31.486162 -8.249898 4.000000
31.632652 -1.355826 4.000000
34.958484 2.451591 4.000000
34.890017 9.314321 4.000000
33.721844 2.256320 4.000000
38.298016 7.265979 4.000000
38.457077 12.661267 4.000000
33.669349 14.709478 4.000000
37.464037 11.953709 4.000000
32.257777 10.183850 4.000000
37.341212 14.669528 4.000000
33.275848 13.557160 4.000000
37.769957 18.894635 4.000000
35.635634 16.784853 4.000000
37.222809 14.974873 4.000000
36.541775 17.580112 4.000000
32.196007 21.134779 4.000000
33.335134 23.606969 4.000000
36.601244 21.761804 4.000000
34.976499 25.004622 4.000000
31.296777 26.653638 4.000000
32.254284 31.052367 4.000000
31.487087 37.434082 4.000000
32.347506 27.978714 4.000000
31.915339 -3.466798 4.000000
35.378389 -2.507728 4.000000
34.365552 4.785171 4.000000
33.269477 1.550408 4.000000
34.683878 5.578656 4.000000
41.391858 7.701255 4.000000
29.467529 7.078927 4.000000
35.155800 12.572390 4.000000
33.964320 9.282643 4.000000
39.281969 15.288620 4.000000
35.058460 12.891286 4.000000
37.009126 6.134930 4.000000
36.633160 12.857042 4.000000
36.312182 14.701736 4.000000
36.839153 17.190177 4.000000
38.049986 14.253321 4.000000
34.086135 16.818607 4.000000
34.620364 14.524396 4.000000
30.444533 21.099628 4.000000
34.916037 21.784154 4.000000
36.291314 21.366607 4.000000
29.049949 30.729378 4.000000
36.743203 27.295070 4.000000
33.255790 25.691893 4.000000
31.407776 31.467197 4.000000
30.666959 -6.903009 4.000000
33.018806 -6.393528 4.000000
35.191496 12.221621 4.000000
33.940806 3.887044 4.000000
37.265272 12.190157 4.000000
33.693463 9.025783 4.000000
36.464715 8.903871 4.000000
32.661049 8.701836 4.000000
34.936070 11.646216 4.000000
37.253995 13.355714 4.000000
37.982221 12.769973 4.000000
37.747939 12.370188 4.000000
35.626626 20.508664 4.000000
34.372884 17.949182 4.000000
37.964233 17.906338 4.000000
33.787867 17.163999 4.000000
37.774214 17.347966 4.000000
39.280079 22.084744 4.000000
35.315541 20.936354 4.000000
35.626648 23.272221 4.000000
36.745771 28.473881 4.000000
30.713283 28.254324 4.000000
40.836486 18.948663 4.000000
33.794655 35.298722 4.000000
30.671350 35.511723 4.000000
30.891131 -2.059476 4.000000
31.205823 -5.106885 4.000000
39.627231 0.979444 4.000000
38.059699 6.854371 4.000000
36.322743 4.486747 4.000000
36.634203 8.000114 4.000000
35.378374 6.173881 4.000000
32.328753 6.829797 4.000000
34.630798 12.236765 4.000000
39.479679 12.761867 4.000000
38.432833 8.927333 4.000000
36.903607 11.908324 4.000000
40.082017 18.208200 4.000000
37.501605 15.677437 4.000000
37.660715 22.132432 4.000000
35.816797 18.737522 4.000000
34.238568 18.269790 4.000000
35.785770 19.944522 4.000000
36.953942 18.955780 4.000000
35.612142 23.861515 4.000000
39.605687 21.442975 4.000000
33.764081 20.002655 4.000000
35.313101 35.961928 4.000000
29.676146 33.349206 4.000000
33.788978 34.711666 4.000000
32.974651 -2.180251 4.000000
33.988424 -1.827366 4.000000
31.864668 -4.751021 4.000000
35.440170 0.763318 4.000000
34.280416 4.018718 4.000000
38.969638 4.833558 4.000000
38.500442 5.998488 4.000000
42.854742 8.166063 4.000000
34.802055 11.339780 4.000000
38.885807 11.841840 4.000000
33.691946 11.260956 4.000000
38.877165 16.054747 4.000000
35.629886 15.677231 4.000000
38.358199 15.997389 4.000000
41.445349 14.609478 4.000000
33.230720 21.596115 4.000000
36.669478 16.866043 4.000000
34.268609 18.878926 4.000000
[...]
POINT_DATA 1250
SCALARS m double
LOOKUP_TABLE default
1.000000
1.000000
1.000000
1.000000
1.000000
1.000000
1.000000
1.000000
1.000000
1.000000
1.000000
1.000000
1.000000
1.000000
1.000000
1.000000
1.000000
1.000000
1.000000
1.000000
1.000000
1.000000
1.000000
1.000000
1.000000
1.000000
1.000000
1.000000
1.000000
1.000000
1.000000
1.000000
1.000000
1.000000
1.000000
1.000000
1.000000
1.000000
1.000000
1.000000
1.000000
1.000000
1.000000
1.000000
1.000000
1.000000
1.000000
1.000000
1.000000
1.000000
1.000000
1.000000
1.000000
1.000000
1.000000
1.000000
1.000000
1.000000
1.000000
1.000000
1.000000
1.000000
1.000000
1.000000
1.000000
1.000000
1.000000
1.000000
1.000000
1.000000
1.000000
1.000000
1.000000
1.000000
1.000000
1.000000
1.000000
1.000000
1.000000
1.000000
1.000000
1.000000
1.000000
1.000000
1.000000
1.000000
1.000000
1.000000
1.000000
1.000000
1.000000
1.000000
1.000000
1.000000
1.000000
1.000000
1.000000
1.000000
1.000000
1.000000
1.000000
1.000000
1.000000
1.000000
1.000000
1.000000
1.000000
1.000000
1.000000
1.000000
1.000000
1.000000
1.000000
1.000000
1.000000
1.000000
1.000000
1.000000
1.000000
1.000000
1.000000
1.000000
1.000000
1.000000
1.000000
1.000000
1.000000
1.000000
1.000000
1.000000
1.000000
1.000000
1.000000
1.000000
1.000000
1.000000
1.000000
1.000000
1.000000
1.000000
1.000000
1.000000
1.000000
1.000000
1.000000
1.000000
1.000000
1.000000
1.000000
1.000000
1.000000
1.000000
1.000000
1.000000
1.000000
1.000000
1.000000
1.000000
1.000000
1.000000
1.000000
1.000000
1.000000
1.000000
1.000000
1.000000
1.000000
1.000000
1.000000
1.000000
1.000000
1.000000
1.000000
1.000000
1.000000
1.000000
1.000000
1.000000
1.000000
1.000000
1.000000
1.000000
1.000000
1.000000
1.000000
1.000000
1.000000
1.000000
1.000000
1.000000
1.000000
1.000000
1.000000
1.000000
1.000000
1.000000
1.000000
1.000000
1.000000
1.000000
1.000000
1.000000
1.000000
1.000000
1.000000
1.000000
1.000000
1.000000
1.000000
1.000000
1.000000
1.000000
1.000000
1.000000
1.000000
1.000000
1.000000
1.000000
1.000000
1.000000
1.000000
1.000000
1.000000
1.000000
1.000000
1.000000
1.000000
1.000000
1.000000
1.000000
1.000000
1.000000
1.000000
1.000000
1.000000
1.000000
1.000000
1.000000
1.000000
1.000000
1.000000
1.000000
1.000000
1.000000
1.000000
1.000000
1.000000
1.000000
1.000000
1.000000
1.000000
1.000000
1.000000
1.000000
1.000000
1.000000
1.000000
1.000000
1.000000
1.000000
1.000000
1.000000
1.000000
1.000000
1.000000
1.000000
1.000000
1.000000
1.000000
1.000000
1.000000
1.000000
1.000000
1.000000
1.000000
1.000000
1.000000
1.000000
1.000000
1.000000
1.000000
1.000000
1.000000
1.000000
1.000000
1.000000
1.000000
1.000000
1.000000
1.000000
1.000000
1.000000
1.000000
1.000000
1.000000
1.000000
1.000000
1.000000
1.000000
1.000000
1.000000
1.000000
1.000000
1.000000
1.000000
1.000000
1.000000
1.000000
1.000000
1.000000
1.000000
1.000000
1.000000
1.000000
1.000000
1.000000
1.000000
1.000000
1.000000
1.000000
1.000000
1.000000
1.000000
1.000000
1.000000
1.000000
1.000000
1.000000
1.000000
1.000000
1.000000
1.000000
1.000000
1.000000
1.000000
1.000000
1.000000
1.000000
1.000000
1.000000
1.000000
1.000000
1.000000
1.000000
1.000000
1.000000
1.000000
1.000000
1.000000
1.000000
1.000000
1.000000
1.000000
1.000000
1.000000
1.000000
1.000000
1.000000
1.000000
1.000000
1.000000
1.000000
1.000000
1.000000
1.000000
1.000000
1.000000
1.000000
1.000000
1.000000
1.000000
1.000000
1.000000
1.000000
1.000000
1.000000
1.000000
1.000000
1.000000
1.000000
1.000000
1.000000
1.000000
1.000000
1.000000
1.000000
1.000000
1.000000
1.000000
1.000000
1.000000
1.000000
1.000000
1.000000
1.000000
1.000000
1.000000
1.000000
1.000000
1.000000
1.000000
1.000000
1.000000
1.000000
1.000000
1.000000
1.000000
1.000000
1.000000
1.000000
1.000000
1.000000
1.000000
1.000000
1.000000
1.000000
1.000000
1.000000
1.000000
1.000000
1.000000
1.000000
1.000000
1.000000
1.000000
1.000000
1.000000
1.000000
1.000000
1.000000
1.000000
1.000000
1.000000
1.000000
1.000000
1.000000
1.000000
1.000000
1.000000
1.000000
1.000000
1.000000
1.000000
1.000000
1.000000
1.000000
1.000000
1.000000
1.000000
1.000000
1.000000
1.000000
1.000000
1.000000
1.000000
1.000000
1.000000
1.000000
1.000000
1.000000
1.000000
1.000000
1.000000
1.000000
1.000000
1.000000
1.000000
1.000000
1.000000
1.000000
1.000000
1.000000
1.000000
1.000000
1.000000
1.000000
1.000000
1.000000
1.000000
1.000000
1.000000
1.000000
1.000000
1.000000
1.000000
1.000000
1.000000
1.000000
1.000000
1.000000
1.000000
1.000000
1.000000
1.000000
1.000000
1.000000
1.000000
1.000000
1.000000
1.000000
1.000000
1.000000
1.000000
1.000000
1.000000
1.000000
1.000000
1.000000
1.000000
1.000000
1.000000
1.000000
1.000000
1.000000
1.000000
1.000000
1.000000
1.000000
1.000000
1.000000
1.000000
1.000000
1.000000
1.000000
1.000000
1.000000
1.000000
1.000000
1.000000
1.000000
1.000000
1.000000
1.000000
1.000000
1.000000
1.000000
1.000000
1.000000
1.000000
1.000000
1.000000
1.000000
1.000000
1.000000
1.000000
1.000000
1.000000
1.000000
1.000000
1.000000
1.000000
1.000000
1.000000
1.000000
1.000000
1.000000
1.000000
1.000000
1.000000
1.000000
1.000000
1.000000
1.000000
1.000000
1.000000
1.000000
1.000000
1.000000
1.000000
1.000000
1.000000
1.000000
1.000000
1.000000
1.000000
1.000000
1.000000
1.000000
1.000000
1.000000
1.000000
1.000000
1.000000
1.000000
1.000000
1.000000
1.000000
1.000000
1.000000
1.000000
1.000000
1.000000
1.000000
1.000000
1.000000
1.000000
1.000000
1.000000
1.000000
1.000000
1.000000
1.000000
1.000000
1.000000
1.000000
1.000000
1.000000
1.000000
1.000000
1.000000
1.000000
1.000000
1.000000
1.000000
1.000000
1.000000
1.000000
1.000000
1.000000
1.000000
1.000000
1.000000
1.000000
1.000000
1.000000
1.000000
1.000000
1.000000
1.000000
1.000000
1.000000
1.000000
1.000000
1.000000
1.000000
1.000000
1.000000
1.000000
1.000000
1.000000
1.000000
1.000000
1.000000
1.000000
1.000000
1.000000
1.000000
1.000000
1.000000
1.000000
1.000000
1.000000
1.000000
1.000000
1.000000
1.000000
1.000000
1.000000
1.000000
1.000000
1.000000
1.000000
1.000000
1.000000
1.000000
1.000000
1.000000
1.000000
1.000000
1.000000
1.000000
1.000000
1.000000
1.000000
1.000000
1.000000
1.000000
1.000000
1.000000
1.000000
1.000000
1.000000
1.000000
1.000000
1.000000
1.000000
1.000000
1.000000
1.000000
1.000000
1.000000
1.000000
1.000000
1.000000
1.000000
1.000000
1.000000
1.000000
1.000000
1.000000
1.000000
1.000000
1.000000
1.000000
1.000000
1.000000
1.000000
1.000000
1.000000
1.000000
1.000000
1.000000
1.000000
1.000000
1.000000
1.000000
1.000000
1.000000
1.000000
1.000000
1.000000
1.000000
1.000000
1.000000
1.000000
1.000000
1.000000
1.000000
1.000000
1.000000
1.000000
1.000000
1.000000
1.000000
1.000000
1.000000
1.000000
1.000000
1.000000
1.000000
1.000000
1.000000
1.000000
1.000000
1.000000
1.000000
1.000000
1.000000
1.000000
1.000000
1.000000
1.000000
1.000000
1.000000
1.000000
1.000000
1.000000
1.000000
1.000000
1.000000
1.000000
1.000000
1.000000
1.000000
1.000000
1.000000
1.000000
1.000000
1.000000
1.000000
1.000000
1.000000
1.000000
1.000000
1.000000
1.000000
1.000000
1.000000
1.000000
1.000000
1.000000
1.000000
1.000000
1.000000
1.000000
1.000000
1.000000
1.000000
1.000000
1.000000
1.000000
1.000000
1.000000
1.000000
1.000000
1.000000
1.000000
1.000000
1.000000
1.000000
1.000000
1.000000
1.000000
1.000000
1.000000
1.000000
1.000000
1.000000
1.000000
1.000000
1.000000
1.000000
1.000000
1.000000
1.000000
1.000000
1.000000
1.000000
1.000000
1.000000
1.000000
1.000000
1.000000
1.000000
1.000000
1.000000
1.000000
1.000000
1.000000
1.000000
1.000000
1.000000
1.000000
1.000000
1.000000
1.000000
1.000000
1.000000
1.000000
1.000000
1.000000
1.000000
1.000000
1.000000
1.000000
1.000000
1.000000
1.000000
1.000000
1.000000
1.000000
1.000000
1.000000
1.000000
1.000000
1.000000
1.000000
1.000000
1.000000
1.000000
1.000000
1.000000
1.000000
1.000000
1.000000
1.000000
1.000000
1.000000
1.000000
1.000000
1.000000
1.000000
1.000000
1.000000
1.000000
1.000000
1.000000
1.000000
1.000000
1.000000
1.000000
1.000000
1.000000
1.000000
1.000000
1.000000
1.000000
1.000000
1.000000
1.000000
1.000000
1.000000
1.000000
1.000000
1.000000
1.000000
1.000000
1.000000
1.000000
1.000000
1.000000
1.000000
1.000000
1.000000
1.000000
1.000000
1.000000
1.000000
1.000000
1.000000
1.000000
1.000000
1.000000
1.000000
1.000000
1.000000
1.000000
1.000000
1.000000
1.000000
1.000000
1.000000
1.000000
1.000000
1.000000
1.000000
1.000000
1.000000
1.000000
1.000000
1.000000
1.000000
1.000000
1.000000
1.000000
1.000000
1.000000
1.000000
1.000000
1.000000
1.000000
1.000000
1.000000
1.000000
1.000000
1.000000
1.000000
1.000000
1.000000
1.000000
1.000000
1.000000
1.000000
1.000000
1.000000
1.000000
1.000000
1.000000
1.000000
1.000000
1.000000
1.000000
1.000000
1.000000
1.000000
1.000000
1.000000
1.000000
1.000000
1.000000
1.000000
1.000000
1.000000
1.000000
1.000000
1.000000
1.000000
1.000000
1.000000
1.000000
1.000000
1.000000
1.000000
1.000000
1.000000
1.000000
1.000000
1.000000
1.000000
1.000000
1.000000
1.000000
1.000000
1.000000
1.000000
1.000000
1.000000
1.000000
1.000000
1.000000
1.000000
1.000000
1.000000
1.000000
1.000000
1.000000
1.000000
1.000000
1.000000
1.000000
1.000000
1.000000
1.000000
1.000000
1.000000
1.000000
1.000000
1.000000
1.000000
1.000000
1.000000
1.000000
1.000000
1.000000
1.000000
1.000000
1.000000
1.000000
1.000000
1.000000
1.000000
1.000000
1.000000
1.000000
1.000000
1.000000
1.000000
1.000000
1.000000
1.000000
1.000000
1.000000
1.000000
1.000000
1.000000
1.000000
1.000000
1.000000
1.000000
1.000000
1.000000
1.000000
1.000000
1.000000
1.000000
1.000000
1.000000
1.000000
1.000000
1.000000
1.000000
1.000000
1.000000
1.000000
1.000000
1.000000
1.000000
1.000000
1.000000
1.000000
1.000000
1.000000
1.000000
1.000000
1.000000
1.000000
1.000000
1.000000
1.000000
1.000000
1.000000
1.000000
1.000000
1.000000
1.000000
1.000000
1.000000
1.000000
1.000000
1.000000
1.000000
1.000000
1.000000
1.000000
1.000000
1.000000
1.000000
1.000000
1.000000
1.000000
1.000000
1.000000
1.000000
1.000000
1.000000
1.000000
1.000000
1.000000
1.000000
1.000000
1.000000
1.000000
1.000000
1.000000
1.000000
1.000000
1.000000
1.000000
1.000000
1.000000
1.000000
1.000000
1.000000
1.000000
1.000000
1.000000
1.000000
1.000000
1.000000
1.000000
1.000000
1.000000
1.000000
1.000000
1.000000
1.000000
1.000000
1.000000
1.000000
1.000000
1.000000
1.000000
1.000000
1.000000
1.000000
1.000000
1.000000
1.000000
1.000000
1.000000
1.000000
1.000000
1.000000
1.000000
1.000000
1.000000
1.000000
1.000000
1.000000
1.000000
1.000000
1.000000
1.000000
1.000000
1.000000
1.000000
1.000000
1.000000
1.000000
1.000000
1.000000
1.000000
1.000000
1.000000
1.000000
1.000000
1.000000
1.000000
1.000000
1.000000
1.000000
1.000000
1.000000
1.000000
1.000000
1.000000
1.000000
1.000000
1.000000
1.000000
1.000000
1.000000
1.000000
1.000000
1.000000
1.000000
1.000000
1.000000
1.000000
1.000000
1.000000
1.000000
1.000000
1.000000
1.000000
1.000000
1.000000
1.000000
1.000000
1.000000
1.000000
1.000000
1.000000
1.000000
1.000000
1.000000
1.000000
1.000000
1.000000
1.000000
1.000000
1.000000
1.000000
1.000000
1.000000
1.000000
1.000000
1.000000
1.000000
1.000000
1.000000
1.000000
1.000000
1.000000
1.000000
1.000000
1.000000
1.000000
1.000000
1.000000
1.000000
1.000000
1.000000
1.000000
1.000000
1.000000
1.000000
1.000000
1.000000
1.000000
VECTORS v double
-8.296843 -13.677424 0.000000
3.186064 -3.752440 0.000000
0.128919 -1.128828 0.000000
1.893873 -4.320906 0.000000
-6.277410 0.807067 0.000000
11.133846 -16.771234 0.000000
-14.076645 1.900872 0.000000
4.784957 -8.000936 0.000000
12.340636 -1.664835 0.000000
6.576283 -8.316774 0.000000
5.428532 -6.290936 0.000000
1.456422 0.937878 0.000000
6.888461 -7.378317 0.000000
-7.673518 5.064013 0.000000
-4.079731 0.473321 0.000000
-2.510823 -6.064931 0.000000
-16.881370 -1.210172 0.000000
8.801261 8.293252 0.000000
-2.373223 1.421504 0.000000
1.972808 -8.626590 0.000000
14.418159 0.819209 0.000000
7.145107 12.279176 0.000000
5.460649 1.863335 0.000000
-4.469285 10.630513 0.000000
-1.412513 7.872128 0.000000
2.630965 -13.726701 0.000000
-7.947985 3.439634 0.000000
5.360548 -9.594472 0.000000
0.349227 -7.176853 0.000000
-5.948027 18.504536 0.000000
2.081534 -6.750671 0.000000
8.157338 -0.917820 0.000000
-4.525923 -9.069437 0.000000
5.264235 -6.145305 0.000000
-3.918699 2.634946 0.000000
4.587242 3.438297 0.000000
-0.481583 16.754141 0.000000
7.599284 8.020097 0.000000
8.787477 -4.452629 0.000000
9.625963 -4.140680 0.000000
-1.048818 2.566737 0.000000
17.418210 13.155535 0.000000
8.453610 -5.815152 0.000000
1.918537 -0.652433 0.000000
1.307078 0.133660 0.000000
-4.090987 6.968818 0.000000
10.461647 6.191547 0.000000
5.365096 9.536947 0.000000
-0.295838 7.857701 0.000000
2.630965 13.726701 0.000000
-0.082390 -9.567822 0.000000
-9.695728 4.546295 0.000000
-6.966659 -5.991383 0.000000
-2.435408 3.587844 0.000000
-15.055741 -6.981263 0.000000
-12.373848 -5.200990 0.000000
-3.987904 -5.188935 0.000000
-9.077605 3.633054 0.000000
7.965463 -0.936937 0.000000
3.535511 -11.277848 0.000000
-1.441853 18.743620 0.000000
-15.058931 0.219927 0.000000
5.448341 12.285166 0.000000
8.587572 -3.022062 0.000000
-5.279468 -7.106817 0.000000
-6.754849 -8.155733 0.000000
0.295375 2.670062 0.000000
5.304034 1.484525 0.000000
-10.054426 5.259296 0.000000
8.781111 -6.687969 0.000000
-5.788115 -3.256732 0.000000
-15.719880 4.888840 0.000000
6.861397 7.365675 0.000000
-3.794244 10.033305 0.000000
-0.277859 9.466868 0.000000
3.154538 -10.534565 0.000000
6.835050 -10.617898 0.000000
-0.762514 -1.411938 0.000000
3.870021 -3.434579 0.000000
-4.329556 -7.966685 0.000000
4.554855 -2.060905 0.000000
-1.431099 0.426261 0.000000
-4.490406 0.907333 0.000000
-2.417229 -11.822363 0.000000
-5.890852 -14.347698 0.000000
-5.311155 -6.642100 0.000000
3.276476 10.512398 0.000000
10.011426 -3.385067 0.000000
9.107538 -4.664146 0.000000
5.196541 -11.575518 0.000000
1.942922 1.758985 0.000000
3.174540 5.124422 0.000000
-0.831999 -10.812124 0.000000
-5.348601 -2.382055 0.000000
-7.230656 -7.804514 0.000000
-0.642274 3.004095 0.000000
4.079431 7.435087 0.000000
4.960192 -8.164904 0.000000
6.835055 10.617898 0.000000
8.725796 6.214020 0.000000
-3.966192 -3.086393 0.000000
6.005884 -7.504626 0.000000
-5.169360 -11.750827 0.000000
0.504737 -15.196324 0.000000
9.819133 -3.690270 0.000000
-0.604472 5.123881 0.000000
0.851576 -0.840020 0.000000
12.601219 5.546159 0.000000
11.808267 -8.845370 0.000000
7.899372 -13.677954 0.000000
7.333206 4.083015 0.000000
-11.279386 -4.342542 0.000000
-3.903018 5.328454 0.000000
-3.201659 -0.617416 0.000000
0.405999 12.124770 0.000000
9.431946 -8.273660 0.000000
-0.506290 -0.235839 0.000000
-5.017869 15.825298 0.000000
-1.866789 -4.544519 0.000000
0.285518 0.484245 0.000000
5.789745 1.489700 0.000000
3.254532 0.927228 0.000000
-1.128109 17.970825 0.000000
6.111746 -3.357377 0.000000
6.125325 6.392135 0.000000
1.316445 -6.406783 0.000000
-0.238273 -17.692425 0.000000
-2.608578 -2.694088 0.000000
0.694520 -13.681905 0.000000
-5.891587 6.008724 0.000000
4.136662 -2.422442 0.000000
-10.002436 -5.021544 0.000000
1.643562 -19.309543 0.000000
-10.070479 1.971327 0.000000
7.699564 -0.374068 0.000000
5.539962 -3.129051 0.000000
-4.165307 2.744632 0.000000
0.154523 -7.801429 0.000000
6.738995 -4.876578 0.000000
-6.839155 3.038575 0.000000
4.139890 -10.068436 0.000000
-2.279031 8.292382 0.000000
-2.956028 -1.593775 0.000000
-1.690835 -4.705335 0.000000
-3.895695 7.897591 0.000000
-9.648045 -3.344694 0.000000
-3.827563 20.925493 0.000000
10.603042 -8.998472 0.000000
-1.995416 10.927773 0.000000
1.230824 6.226164 0.000000
-2.553747 -7.015037 0.000000
-0.271295 -18.115205 0.000000
3.171919 -10.667522 0.000000
2.511654 5.308880 0.000000
2.542191 -4.246042 0.000000
13.552619 -4.833752 0.000000
-1.620240 4.050171 0.000000
3.170220 10.691570 0.000000
11.542094 -4.933477 0.000000
5.280782 -15.786255 0.000000
-8.446976 2.936862 0.000000
-6.232873 -2.547845 0.000000
-8.540728 -0.464071 0.000000
-11.896881 0.808443 0.000000
6.654081 6.272698 0.000000
9.327304 -4.299300 0.000000
2.269607 4.277410 0.000000
-3.820431 -6.197172 0.000000
-8.261562 5.185218 0.000000
3.380699 8.080712 0.000000
2.740589 15.421952 0.000000
4.203086 7.367742 0.000000
-2.255898 4.422874 0.000000
-7.461642 11.724745 0.000000
2.650599 7.002666 0.000000
4.837053 -9.997753 0.000000
-5.713609 -12.822651 0.000000
-5.713807 -6.813758 0.000000
-3.180305 -6.680350 0.000000
4.106087 1.584094 0.000000
7.072218 -8.015450 0.000000
4.927150 -2.402729 0.000000
-8.590762 4.365807 0.000000
-3.146235 -5.693878 0.000000
-4.005087 -0.230688 0.000000
-2.647285 -6.371733 0.000000
-3.705607 1.963587 0.000000
-0.445124 11.452255 0.000000
-8.516156 8.546092 0.000000
-8.673940 -10.444239 0.000000
3.630855 -11.418559 0.000000
7.613714 -6.704259 0.000000
-6.483389 -1.170719 0.000000
1.687076 11.593797 0.000000
-8.261807 3.757670 0.000000
0.775286 -11.500620 0.000000
7.191702 8.861425 0.000000
-1.146729 5.790573 0.000000
-7.739541 -3.898449 0.000000
4.837053 9.997753 0.000000
-2.991685 -4.334448 0.000000
11.868504 -4.529606 0.000000
6.614118 -14.955204 0.000000
2.492662 -1.753641 0.000000
5.148162 9.351706 0.000000
2.735081 -1.759310 0.000000
6.105641 11.042936 0.000000
-6.095735 -0.917853 0.000000
-1.966259 -12.215956 0.000000
-7.527943 -9.131840 0.000000
-2.068977 -11.767664 0.000000
-1.315587 -1.217093 0.000000
2.403404 -2.639113 0.000000
4.710286 5.826007 0.000000
-2.201808 9.814306 0.000000
-1.412006 -10.369280 0.000000
2.882206 0.877503 0.000000
-4.702586 12.518407 0.000000
-2.224539 -4.736897 0.000000
-1.383903 4.778385 0.000000
3.871207 -2.722434 0.000000
-10.180624 6.809167 0.000000
0.924384 7.847884 0.000000
-14.099902 0.222693 0.000000
0.749509 7.928882 0.000000
-5.689429 -0.337540 0.000000
-3.935801 -8.249663 0.000000
-3.883558 -5.214457 0.000000
5.154098 -6.374854 0.000000
-2.479638 -6.722254 0.000000
4.006691 -1.891999 0.000000
4.481079 4.546188 0.000000
0.696086 6.428701 0.000000
-11.783524 9.948389 0.000000
-3.817232 8.288810 0.000000
-5.444056 -6.766190 0.000000
-0.075226 -9.942785 0.000000
-7.436113 -4.258675 0.000000
3.218313 -8.883704 0.000000
-0.581459 10.430101 0.000000
12.907671 3.461588 0.000000
2.719058 9.585672 0.000000
-9.345761 -4.717847 0.000000
-10.975643 4.021987 0.000000
-0.456639 -2.014473 0.000000
-2.552629 -0.099017 0.000000
-10.854659 2.672358 0.000000
-0.115906 5.925742 0.000000
-3.932817 8.250512 0.000000
-1.101273 -2.194280 0.000000
1.905061 0.365685 0.000000
5.490912 -5.649013 0.000000
-9.525462 4.862721 0.000000
-2.463887 -8.523450 0.000000
-5.994878 -11.581070 0.000000
10.477854 -5.866586 0.000000
-9.403613 9.140907 0.000000
-5.875588 4.919986 0.000000
-9.554543 -7.285006 0.000000
-4.047290 19.348872 0.000000
8.663553 1.049506 0.000000
9.114595 -17.237156 0.000000
2.558504 1.615561 0.000000
-1.252984 -3.427366 0.000000
0.289446 -2.516139 0.000000
0.630768 -2.317365 0.000000
4.729915 -4.796925 0.000000
-5.082133 1.735800 0.000000
-3.990457 0.726781 0.000000
-8.074332 18.282524 0.000000
-8.509547 -5.376862 0.000000
-7.454079 6.858071 0.000000
-3.961809 9.974101 0.000000
3.233011 10.154972 0.000000
9.458408 16.581688 0.000000
-4.000267 -15.974466 0.000000
-5.287537 -10.632650 0.000000
-6.230604 6.412845 0.000000
-1.094999 6.642750 0.000000
5.413524 13.633046 0.000000
-14.208582 7.182768 0.000000
0.648264 -4.004637 0.000000
-8.152967 3.383358 0.000000
-9.165718 -4.095070 0.000000
5.730473 -11.258813 0.000000
1.133071 -0.490074 0.000000
-1.648060 -5.193000 0.000000
-6.636829 11.457596 0.000000
3.606208 4.340383 0.000000
2.122650 13.136756 0.000000
2.073969 10.621826 0.000000
-5.906693 24.173424 0.000000
3.454043 6.654863 0.000000
-13.448133 -0.576381 0.000000
-1.787544 -3.522890 0.000000
-2.925058 6.199286 0.000000
-4.579896 4.008662 0.000000
-2.962787 2.900699 0.000000
2.152029 11.789902 0.000000
-2.622640 11.400514 0.000000
-7.194660 -7.902808 0.000000
8.596790 -7.981837 0.000000
-11.724255 -6.107990 0.000000
-7.109007 -6.155028 0.000000
-10.291790 -3.392750 0.000000