# vtk DataFile Version 4.0
hesp visualization file
ASCII
DATASET UNSTRUCTURED_GRID
POINTS 1250 double
30.543653 1.125593 4.000000
30.543607 2.244990 4.000000
30.543607 3.367386 4.000000
30.543607 4.489848 4.000000
30.543607 5.612310 4.000000
30.543607 6.734772 4.000000
30.543607 7.857234 4.000000
30.543607 8.979696 4.000000
30.543607 10.102158 4.000000
30.543607 11.224620 4.000000
30.543607 12.347083 4.000000
30.543607 13.469545 4.000000
30.543607 14.592007 4.000000
30.543607 15.714469 4.000000
30.543607 16.836931 4.000000
30.543607 17.959393 4.000000
30.543607 19.081855 4.000000
30.543607 20.204317 4.000000
30.543607 21.326779 4.000000
30.543607 22.449241 4.000000
30.543607 23.571703 4.000000
30.543607 24.694165 4.000000
30.543607 25.816627 4.000000
30.543607 26.939024 4.000000
30.543653 28.058420 4.000000
30.783133 1.111310 4.000000
30.783066 2.244637 4.000000
30.783066 3.367386 4.000000
30.783066 4.489848 4.000000
30.783066 5.612310 4.000000
30.783066 6.734772 4.000000
30.783066 7.857234 4.000000
30.783066 8.979696 4.000000
30.783066 10.102158 4.000000
30.783066 11.224620 4.000000
30.783066 12.347083 4.000000
30.783066 13.469545 4.000000
30.783066 14.592007 4.000000
30.783066 15.714469 4.000000
30.783066 16.836931 4.000000
30.783066 17.959393 4.000000
30.783066 19.081855 4.000000
30.783066 20.204317 4.000000
30.783066 21.326779 4.000000
30.783066 22.449241 4.000000
30.783066 23.571703 4.000000
30.783066 24.694165 4.000000
30.783066 25.816627 4.000000
30.783066 26.939376 4.000000
30.783133 28.072703 4.000000
31.870152 1.133305 4.000000
31.870230 2.245187 4.000000
31.870230 3.367386 4.000000
31.870230 4.489848 4.000000
31.870230 5.612310 4.000000
31.870230 6.734772 4.000000
31.870230 7.857234 4.000000
31.870230 8.979696 4.000000
31.870230 10.102158 4.000000
31.870230 11.224620 4.000000
31.870230 12.347083 4.000000
31.870230 13.469545 4.000000
31.870230 14.592007 4.000000
31.870230 15.714469 4.000000
31.870230 16.836931 4.000000
31.870230 17.959393 4.000000
31.870230 19.081855 4.000000
31.870230 20.204317 4.000000
31.870230 21.326779 4.000000
31.870230 22.449241 4.000000
31.870230 23.571703 4.000000
31.870230 24.694165 4.000000
31.870230 25.816627 4.000000
31.870230 26.938826 4.000000
31.870152 28.050709 4.000000
32.109678 1.119913 4.000000
32.109721 2.244849 4.000000
32.109721 3.367386 4.000000
32.109721 4.489848 4.000000
32.109721 5.612310 4.000000
32.109721 6.734772 4.000000
32.109721 7.857234 4.000000
32.109721 8.979696 4.000000
32.109721 10.102158 4.000000
32.109721 11.224620 4.000000
32.109721 12.347083 4.000000
32.109721 13.469545 4.000000
32.109721 14.592007 4.000000
32.109721 15.714469 4.000000
32.109721 16.836931 4.000000
32.109721 17.959393 4.000000
32.109721 19.081855 4.000000
32.109721 20.204317 4.000000
32.109721 21.326779 4.000000
32.109721 22.449241 4.000000
32.109721 23.571703 4.000000
32.109721 24.694165 4.000000
32.109721 25.816627 4.000000
32.109721 26.939165 4.000000
32.109678 28.064100 4.000000
33.196530 1.124991 4.000000
33.196531 2.244980 4.000000
33.196531 3.367386 4.000000
33.196531 4.489848 4.000000
33.196531 5.612310 4.000000
33.196531 6.734772 4.000000
33.196531 7.857234 4.000000
33.196531 8.979696 4.000000
33.196531 10.102158 4.000000
33.196531 11.224620 4.000000
33.196531 12.347083 4.000000
33.196531 13.469545 4.000000
33.196531 14.592007 4.000000
33.196531 15.714469 4.000000
33.196531 16.836931 4.000000
33.196531 17.959393 4.000000
33.196531 19.081855 4.000000
33.196531 20.204317 4.000000
33.196531 21.326779 4.000000
33.196531 22.449241 4.000000
33.196531 23.571703 4.000000
33.196531 24.694165 4.000000
33.196531 25.816627 4.000000
33.196531 26.939033 4.000000
33.196530 28.059022 4.000000
33.436291 1.122931 4.000000
33.436291 2.244927 4.000000
33.436291 3.367386 4.000000
33.436291 4.489848 4.000000
33.436291 5.612310 4.000000
33.436291 6.734772 4.000000
33.436291 7.857234 4.000000
33.436291 8.979696 4.000000
33.436291 10.102158 4.000000
33.436291 11.224620 4.000000
33.436291 12.347083 4.000000
33.436291 13.469545 4.000000
33.436291 14.592007 4.000000
33.436291 15.714469 4.000000
33.436291 16.836931 4.000000
33.436291 17.959393 4.000000
33.436291 19.081855 4.000000
33.436291 20.204317 4.000000
33.436291 21.326779 4.000000
33.436291 22.449241 4.000000
33.436291 23.571703 4.000000
33.436291 24.694165 4.000000
33.436291 25.816627 4.000000
33.436291 26.939086 4.000000
33.436291 28.061082 4.000000
34.557234 1.122943 4.000000
34.557234 2.244927 4.000000
34.557234 3.367386 4.000000
34.557234 4.489848 4.000000
34.557234 5.612310 4.000000
34.557234 6.734772 4.000000
34.557234 7.857234 4.000000
34.557234 8.979696 4.000000
34.557234 10.102158 4.000000
34.557234 11.224620 4.000000
34.557234 12.347083 4.000000
34.557234 13.469545 4.000000
34.557234 14.592007 4.000000
34.557234 15.714469 4.000000
34.557234 16.836931 4.000000
34.557234 17.959393 4.000000
34.557234 19.081855 4.000000
34.557234 20.204317 4.000000
34.557234 21.326779 4.000000
34.557234 22.449241 4.000000
34.557234 23.571703 4.000000
34.557234 24.694165 4.000000
34.557234 25.816627 4.000000
34.557234 26.939086 4.000000
34.557234 28.061071 4.000000
35.679696 1.122943 4.000000
35.679696 2.244927 4.000000
35.679696 3.367386 4.000000
35.679696 4.489848 4.000000
35.679696 5.612310 4.000000
35.679696 6.734772 4.000000
35.679696 7.857234 4.000000
35.679696 8.979696 4.000000
35.679696 10.102158 4.000000
35.679696 11.224620 4.000000
35.679696 12.347083 4.000000
35.679696 13.469545 4.000000
35.679696 14.592007 4.000000
35.679696 15.714469 4.000000
35.679696 16.836931 4.000000
35.679696 17.959393 4.000000
35.679696 19.081855 4.000000
35.679696 20.204317 4.000000
35.679696 21.326779 4.000000
35.679696 22.449241 4.000000
35.679696 23.571703 4.000000
35.679696 24.694165 4.000000
35.679696 25.816627 4.000000
35.679696 26.939086 4.000000
35.679696 28.061071 4.000000
36.802158 1.122943 4.000000
36.802158 2.244927 4.000000
36.802158 3.367386 4.000000
36.802158 4.489848 4.000000
36.802158 5.612310 4.000000
36.802158 6.734772 4.000000
36.802158 7.857234 4.000000
36.802158 8.979696 4.000000
36.802158 10.102158 4.000000
36.802158 11.224620 4.000000
36.802158 12.347083 4.000000
36.802158 13.469545 4.000000
36.802158 14.592007 4.000000
36.802158 15.714469 4.000000
36.802158 16.836931 4.000000
36.802158 17.959393 4.000000
36.802158 19.081855 4.000000
36.802158 20.204317 4.000000
36.802158 21.326779 4.000000
36.802158 22.449241 4.000000
36.802158 23.571703 4.000000
36.802158 24.694165 4.000000
36.802158 25.816627 4.000000
36.802158 26.939086 4.000000
36.802158 28.061071 4.000000
37.924620 1.122943 4.000000
37.924620 2.244927 4.000000
37.924620 3.367386 4.000000
37.924620 4.489848 4.000000
37.924620 5.612310 4.000000
37.924620 6.734772 4.000000
37.924620 7.857234 4.000000
37.924620 8.979696 4.000000
37.924620 10.102158 4.000000
37.924620 11.224620 4.000000
37.924620 12.347083 4.000000
37.924620 13.469545 4.000000
37.924620 14.592007 4.000000
37.924620 15.714469 4.000000
37.924620 16.836931 4.000000
37.924620 17.959393 4.000000
37.924620 19.081855 4.000000
37.924620 20.204317 4.000000
37.924620 21.326779 4.000000
37.924620 22.449241 4.000000
37.924620 23.571703 4.000000
37.924620 24.694165 4.000000
37.924620 25.816627 4.000000
37.924620 26.939086 4.000000
37.924620 28.061071 4.000000
39.047083 1.122943 4.000000
39.047083 2.244927 4.000000
39.047083 3.367386 4.000000
39.047083 4.489848 4.000000
39.047083 5.612310 4.000000
39.047083 6.734772 4.000000
39.047083 7.857234 4.000000
39.047083 8.979696 4.000000
39.047083 10.102158 4.000000
39.047083 11.224620 4.000000
39.047083 12.347083 4.000000
39.047083 13.469545 4.000000
39.047083 14.592007 4.000000
39.047083 15.714469 4.000000
39.047083 16.836931 4.000000
39.047083 17.959393 4.000000
39.047083 19.081855 4.000000
39.047083 20.204317 4.000000
39.047083 21.326779 4.000000
39.047083 22.449241 4.000000
39.047083 23.571703 4.000000
39.047083 24.694165 4.000000
39.047083 25.816627 4.000000
39.047083 26.939086 4.000000
39.047083 28.061071 4.000000
40.169545 1.122943 4.000000
40.169545 2.244927 4.000000
40.169545 3.367386 4.000000
40.169545 4.489848 4.000000
40.169545 5.612310 4.000000
40.169545 6.734772 4.000000
40.169545 7.857234 4.000000
40.169545 8.979696 4.000000
40.169545 10.102158 4.000000
40.169545 11.224620 4.000000
40.169545 12.347083 4.000000
40.169545 13.469545 4.000000
40.169545 14.592007 4.000000
40.169545 15.714469 4.000000
40.169545 16.836931 4.000000
40.169545 17.959393 4.000000
40.169545 19.081855 4.000000
40.169545 20.204317 4.000000
40.169545 21.326779 4.000000
40.169545 22.449241 4.000000
40.169545 23.571703 4.000000
40.169545 24.694165 4.000000
40.169545 25.816627 4.000000
40.169545 26.939086 4.000000
40.169545 28.061071 4.000000
41.292007 1.122943 4.000000
41.292007 2.244927 4.000000
41.292007 3.367386 4.000000
41.292007 4.489848 4.000000
41.292007 5.612310 4.000000
41.292007 6.734772 4.000000
41.292007 7.857234 4.000000
41.292007 8.979696 4.000000
41.292007 10.102158 4.000000
41.292007 11.224620 4.000000
41.292007 12.347083 4.000000
41.292007 13.469545 4.000000
41.292007 14.592007 4.000000
41.292007 15.714469 4.000000
41.292007 16.836931 4.000000
41.292007 17.959393 4.000000
41.292007 19.081855 4.000000
41.292007 20.204317 4.000000
41.292007 21.326779 4.000000
41.292007 22.449241 4.000000
41.292007 23.571703 4.000000
41.292007 24.694165 4.000000
41.292007 25.816627 4.000000
41.292007 26.939086 4.000000
41.292007 28.061071 4.000000
42.414469 1.122943 4.000000
42.414469 2.244927 4.000000
42.414469 3.367386 4.000000
42.414469 4.489848 4.000000
42.414469 5.612310 4.000000
42.414469 6.734772 4.000000
42.414469 7.857234 4.000000
42.414469 8.979696 4.000000
42.414469 10.102158 4.000000
42.414469 11.224620 4.000000
42.414469 12.347083 4.000000
42.414469 13.469545 4.000000
42.414469 14.592007 4.000000
42.414469 15.714469 4.000000
42.414469 16.836931 4.000000
42.414469 17.959393 4.000000
42.414469 19.081855 4.000000
42.414469 20.204317 4.000000
42.414469 21.326779 4.000000
42.414469 22.449241 4.000000
[...]
POINT_DATA 1250
SCALARS m double
LOOKUP_TABLE default
1.000000
1.000000
1.000000
1.000000
1.000000
1.000000
1.000000
1.000000
1.000000
1.000000
1.000000
1.000000
1.000000
1.000000
1.000000
1.000000
1.000000
1.000000
1.000000
1.000000
1.000000
1.000000
1.000000
1.000000
1.000000
1.000000
1.000000
1.000000
1.000000
1.000000
1.000000
1.000000
1.000000
1.000000
1.000000
1.000000
1.000000
1.000000
1.000000
1.000000
1.000000
1.000000
1.000000
1.000000
1.000000
1.000000
1.000000
1.000000
1.000000
1.000000
1.000000
1.000000
1.000000
1.000000
1.000000
1.000000
1.000000
1.000000
1.000000
1.000000
1.000000
1.000000
1.000000
1.000000
1.000000
1.000000
1.000000
1.000000
1.000000
1.000000
1.000000
1.000000
1.000000
1.000000
1.000000
1.000000
1.000000
1.000000
1.000000
1.000000
1.000000
1.000000
1.000000
1.000000
1.000000
1.000000
1.000000
1.000000
1.000000
1.000000
1.000000
1.000000
1.000000
1.000000
1.000000
1.000000
1.000000
1.000000
1.000000
1.000000
1.000000
1.000000
1.000000
1.000000
1.000000
1.000000
1.000000
1.000000
1.000000
1.000000
1.000000
1.000000
1.000000
1.000000
1.000000
1.000000
1.000000
1.000000
1.000000
1.000000
1.000000
1.000000
1.000000
1.000000
1.000000
1.000000
1.000000
1.000000
1.000000
1.000000
1.000000
1.000000
1.000000
1.000000
1.000000
1.000000
1.000000
1.000000
1.000000
1.000000
1.000000
1.000000
1.000000
1.000000
1.000000
1.000000
1.000000
1.000000
1.000000
1.000000
1.000000
1.000000
1.000000
1.000000
1.000000
1.000000
1.000000
1.000000
1.000000
1.000000
1.000000
1.000000
1.000000
1.000000
1.000000
1.000000
1.000000
1.000000
1.000000
1.000000
1.000000
1.000000
1.000000
1.000000
1.000000
1.000000
1.000000
1.000000
1.000000
1.000000
1.000000
1.000000
1.000000
1.000000
1.000000
1.000000
1.000000
1.000000
1.000000
1.000000
1.000000
1.000000
1.000000
1.000000
1.000000
1.000000
1.000000
1.000000
1.000000
1.000000
1.000000
1.000000
1.000000
1.000000
1.000000
1.000000
1.000000
1.000000
1.000000
1.000000
1.000000
1.000000
1.000000
1.000000
1.000000
1.000000
1.000000
1.000000
1.000000
1.000000
1.000000
1.000000
1.000000
1.000000
1.000000
1.000000
1.000000
1.000000
1.000000
1.000000
1.000000
1.000000
1.000000
1.000000
1.000000
1.000000
1.000000
1.000000
1.000000
1.000000
1.000000
1.000000
1.000000
1.000000
1.000000
1.000000
1.000000
1.000000
1.000000
1.000000
1.000000
1.000000
1.000000
1.000000
1.000000
1.000000
1.000000
1.000000
1.000000
1.000000
1.000000
1.000000
1.000000
1.000000
1.000000
1.000000
1.000000
1.000000
1.000000
1.000000
1.000000
1.000000
1.000000
1.000000
1.000000
1.000000
1.000000
1.000000
1.000000
1.000000
1.000000
1.000000
1.000000
1.000000
1.000000
1.000000
1.000000
1.000000
1.000000
1.000000
1.000000
1.000000
1.000000
1.000000
1.000000
1.000000
1.000000
1.000000
1.000000
1.000000
1.000000
1.000000
1.000000
1.000000
1.000000
1.000000
1.000000
1.000000
1.000000
1.000000
1.000000
1.000000
1.000000
1.000000
1.000000
1.000000
1.000000
1.000000
1.000000
1.000000
1.000000
1.000000
1.000000
1.000000
1.000000
1.000000
1.000000
1.000000
1.000000
1.000000
1.000000
1.000000
1.000000
1.000000
1.000000
1.000000
1.000000
1.000000
1.000000
1.000000
1.000000
1.000000
1.000000
1.000000
1.000000
1.000000
1.000000
1.000000
1.000000
1.000000
1.000000
1.000000
1.000000
1.000000
1.000000
1.000000
1.000000
1.000000
1.000000
1.000000
1.000000
1.000000
1.000000
1.000000
1.000000
1.000000
1.000000
1.000000
1.000000
1.000000
1.000000
1.000000
1.000000
1.000000
1.000000
1.000000
1.000000
1.000000
1.000000
1.000000
1.000000
1.000000
1.000000
1.000000
1.000000
1.000000
1.000000
1.000000
1.000000
1.000000
1.000000
1.000000
1.000000
1.000000
1.000000
1.000000
1.000000
1.000000
1.000000
1.000000
1.000000
1.000000
1.000000
1.000000
1.000000
1.000000
1.000000
1.000000
1.000000
1.000000
1.000000
1.000000
1.000000
1.000000
1.000000
1.000000
1.000000
1.000000
1.000000
1.000000
1.000000
1.000000
1.000000
1.000000
1.000000
1.000000
1.000000
1.000000
1.000000
1.000000
1.000000
1.000000
1.000000
1.000000
1.000000
1.000000
1.000000
1.000000
1.000000
1.000000
1.000000
1.000000
1.000000
1.000000
1.000000
1.000000
1.000000
1.000000
1.000000
1.000000
1.000000
1.000000
1.000000
1.000000
1.000000
1.000000
1.000000
1.000000
1.000000
1.000000
1.000000
1.000000
1.000000
1.000000
1.000000
1.000000
1.000000
1.000000
1.000000
1.000000
1.000000
1.000000
1.000000
1.000000
1.000000
1.000000
1.000000
1.000000
1.000000
1.000000
1.000000
1.000000
1.000000
1.000000
1.000000
1.000000
1.000000
1.000000
1.000000
1.000000
1.000000
1.000000
1.000000
1.000000
1.000000
1.000000
1.000000
1.000000
1.000000
1.000000
1.000000
1.000000
1.000000
1.000000
1.000000
1.000000
1.000000
1.000000
1.000000
1.000000
1.000000
1.000000
1.000000
1.000000
1.000000
1.000000
1.000000
1.000000
1.000000
1.000000
1.000000
1.000000
1.000000
1.000000
1.000000
1.000000
1.000000
1.000000
1.000000
1.000000
1.000000
1.000000
1.000000
1.000000
1.000000
1.000000
1.000000
1.000000
1.000000
1.000000
1.000000
1.000000
1.000000
1.000000
1.000000
1.000000
1.000000
1.000000
1.000000
1.000000
1.000000
1.000000
1.000000
1.000000
1.000000
1.000000
1.000000
1.000000
1.000000
1.000000
1.000000
1.000000
1.000000
1.000000
1.000000
1.000000
1.000000
1.000000
1.000000
1.000000
1.000000
1.000000
1.000000
1.000000
1.000000
1.000000
1.000000
1.000000
1.000000
1.000000
1.000000
1.000000
1.000000
1.000000
1.000000
1.000000
1.000000
1.000000
1.000000
1.000000
1.000000
1.000000
1.000000
1.000000
1.000000
1.000000
1.000000
1.000000
1.000000
1.000000
1.000000
1.000000
1.000000
1.000000
1.000000
1.000000
1.000000
1.000000
1.000000
1.000000
1.000000
1.000000
1.000000
1.000000
1.000000
1.000000
1.000000
1.000000
1.000000
1.000000
1.000000
1.000000
1.000000
1.000000
1.000000
1.000000
1.000000
1.000000
1.000000
1.000000
1.000000
1.000000
1.000000
1.000000
1.000000
1.000000
1.000000
1.000000
1.000000
1.000000
1.000000
1.000000
1.000000
1.000000
1.000000
1.000000
1.000000
1.000000
1.000000
1.000000
1.000000
1.000000
1.000000
1.000000
1.000000
1.000000
1.000000
1.000000
1.000000
1.000000
1.000000
1.000000
1.000000
1.000000
1.000000
1.000000
1.000000
1.000000
1.000000
1.000000
1.000000
1.000000
1.000000
1.000000
1.000000
1.000000
1.000000
1.000000
1.000000
1.000000
1.000000
1.000000
1.000000
1.000000
1.000000
1.000000
1.000000
1.000000
1.000000
1.000000
1.000000
1.000000
1.000000
1.000000
1.000000
1.000000
1.000000
1.000000
1.000000
1.000000
1.000000
1.000000
1.000000
1.000000
1.000000
1.000000
1.000000
1.000000
1.000000
1.000000
1.000000
1.000000
1.000000
1.000000
1.000000
1.000000
1.000000
1.000000
1.000000
1.000000
1.000000
1.000000
1.000000
1.000000
1.000000
1.000000
1.000000
1.000000
1.000000
1.000000
1.000000
1.000000
1.000000
1.000000
1.000000
1.000000
1.000000
1.000000
1.000000
1.000000
1.000000
1.000000
1.000000
1.000000
1.000000
1.000000
1.000000
1.000000
1.000000
1.000000
1.000000
1.000000
1.000000
1.000000
1.000000
1.000000
1.000000
1.000000
1.000000
1.000000
1.000000
1.000000
1.000000
1.000000
1.000000
1.000000
1.000000
1.000000
1.000000
1.000000
1.000000
1.000000
1.000000
1.000000
1.000000
1.000000
1.000000
1.000000
1.000000
1.000000
1.000000
1.000000
1.000000
1.000000
1.000000
1.000000
1.000000
1.000000
1.000000
1.000000
1.000000
1.000000
1.000000
1.000000
1.000000
1.000000
1.000000
1.000000
1.000000
1.000000
1.000000
1.000000
1.000000
1.000000
1.000000
1.000000
1.000000
1.000000
1.000000
1.000000
1.000000
1.000000
1.000000
1.000000
1.000000
1.000000
1.000000
1.000000
1.000000
1.000000
1.000000
1.000000
1.000000
1.000000
1.000000
1.000000
1.000000
1.000000
1.000000
1.000000
1.000000
1.000000
1.000000
1.000000
1.000000
1.000000
1.000000
1.000000
1.000000
1.000000
1.000000
1.000000
1.000000
1.000000
1.000000
1.000000
1.000000
1.000000
1.000000
1.000000
1.000000
1.000000
1.000000
1.000000
1.000000
1.000000
1.000000
1.000000
1.000000
1.000000
1.000000
1.000000
1.000000
1.000000
1.000000
1.000000
1.000000
1.000000
1.000000
1.000000
1.000000
1.000000
1.000000
1.000000
1.000000
1.000000
1.000000
1.000000
1.000000
1.000000
1.000000
1.000000
1.000000
1.000000
1.000000
1.000000
1.000000
1.000000
1.000000
1.000000
1.000000
1.000000
1.000000
1.000000
1.000000
1.000000
1.000000
1.000000
1.000000
1.000000
1.000000
1.000000
1.000000
1.000000
1.000000
1.000000
1.000000
1.000000
1.000000
1.000000
1.000000
1.000000
1.000000
1.000000
1.000000
1.000000
1.000000
1.000000
1.000000
1.000000
1.000000
1.000000
1.000000
1.000000
1.000000
1.000000
1.000000
1.000000
1.000000
1.000000
1.000000
1.000000
1.000000
1.000000
1.000000
1.000000
1.000000
1.000000
1.000000
1.000000
1.000000
1.000000
1.000000
1.000000
1.000000
1.000000
1.000000
1.000000
1.000000
1.000000
1.000000
1.000000
1.000000
1.000000
1.000000
1.000000
1.000000
1.000000
1.000000
1.000000
1.000000
1.000000
1.000000
1.000000
1.000000
1.000000
1.000000
1.000000
1.000000
1.000000
1.000000
1.000000
1.000000
1.000000
1.000000
1.000000
1.000000
1.000000
1.000000
1.000000
1.000000
1.000000
1.000000
1.000000
1.000000
1.000000
1.000000
1.000000
1.000000
1.000000
1.000000
1.000000
1.000000
1.000000
1.000000
1.000000
1.000000
1.000000
1.000000
1.000000
1.000000
1.000000
1.000000
1.000000
1.000000
1.000000
1.000000
1.000000
1.000000
1.000000
1.000000
1.000000
1.000000
1.000000
1.000000
1.000000
1.000000
1.000000
1.000000
1.000000
1.000000
1.000000
1.000000
1.000000
1.000000
1.000000
1.000000
1.000000
1.000000
1.000000
1.000000
1.000000
1.000000
1.000000
1.000000
1.000000
1.000000
1.000000
1.000000
1.000000
1.000000
1.000000
1.000000
1.000000
1.000000
1.000000
1.000000
1.000000
1.000000
1.000000
1.000000
1.000000
1.000000
1.000000
1.000000
1.000000
1.000000
1.000000
1.000000
1.000000
1.000000
1.000000
1.000000
1.000000
1.000000
1.000000
1.000000
1.000000
1.000000
1.000000
1.000000
1.000000
1.000000
1.000000
1.000000
1.000000
1.000000
1.000000
1.000000
1.000000
1.000000
1.000000
1.000000
1.000000
1.000000
1.000000
1.000000
1.000000
1.000000
1.000000
1.000000
1.000000
1.000000
1.000000
1.000000
1.000000
1.000000
1.000000
1.000000
1.000000
1.000000
1.000000
1.000000
1.000000
1.000000
1.000000
1.000000
1.000000
1.000000
1.000000
1.000000
1.000000
1.000000
1.000000
1.000000
1.000000
1.000000
1.000000
1.000000
1.000000
1.000000
1.000000
1.000000
1.000000
1.000000
1.000000
1.000000
1.000000
1.000000
1.000000
1.000000
1.000000
1.000000
1.000000
1.000000
1.000000
1.000000
1.000000
1.000000
1.000000
1.000000
1.000000
1.000000
1.000000
1.000000
1.000000
1.000000
1.000000
1.000000
1.000000
1.000000
1.000000
1.000000
1.000000
1.000000
1.000000
1.000000
1.000000
1.000000
1.000000
1.000000
1.000000
1.000000
1.000000
1.000000
1.000000
1.000000
1.000000
1.000000
1.000000
1.000000
1.000000
1.000000
1.000000
1.000000
1.000000
1.000000
1.000000
1.000000
1.000000
1.000000
1.000000
1.000000
1.000000
1.000000
1.000000
1.000000
1.000000
1.000000
1.000000
1.000000
1.000000
1.000000
1.000000
1.000000
1.000000
1.000000
1.000000
1.000000
1.000000
1.000000
1.000000
1.000000
1.000000
1.000000
1.000000
1.000000
1.000000
1.000000
1.000000
1.000000
1.000000
1.000000
1.000000
1.000000
1.000000
1.000000
1.000000
1.000000
1.000000
1.000000
1.000000
1.000000
1.000000
1.000000
1.000000
1.000000
1.000000
1.000000
1.000000
1.000000
1.000000
1.000000
1.000000
1.000000
1.000000
1.000000
1.000000
1.000000
1.000000
1.000000
1.000000
1.000000
1.000000
1.000000
1.000000
1.000000
1.000000
1.000000
1.000000
VECTORS v double
7.382099 0.177435 0.000000
7.307088 0.004399 0.000000
7.307021 -0.000001 0.000000
7.307021 -0.000000 0.000000
7.307021 0.000000 0.000000
7.307021 0.000000 0.000000
7.307021 -0.000000 0.000000
7.307021 -0.000000 0.000000
7.307021 0.000000 0.000000
7.307021 -0.000000 0.000000
7.307021 -0.000000 0.000000
7.307021 0.000000 0.000000
7.307021 -0.000000 0.000000
7.307021 -0.000000 0.000000
7.307021 -0.000000 0.000000
7.307021 0.000000 0.000000
7.307021 -0.000000 0.000000
7.307021 -0.000000 0.000000
7.307021 0.000000 0.000000
7.307021 0.000000 0.000000
7.307021 -0.000000 0.000000
7.307021 0.000000 0.000000
7.307021 0.000001 0.000000
7.307088 -0.004399 0.000000
7.382099 -0.177435 0.000000
-7.378804 -0.374373 0.000000
-7.306236 -0.009461 0.000000
-7.306169 0.000003 0.000000
-7.306169 0.000000 0.000000
-7.306169 -0.000000 0.000000
-7.306169 -0.000000 0.000000
-7.306169 -0.000000 0.000000
-7.306169 -0.000000 0.000000
-7.306169 0.000000 0.000000
-7.306169 -0.000000 0.000000
-7.306169 0.000000 0.000000
-7.306169 0.000000 0.000000
-7.306169 -0.000000 0.000000
-7.306169 -0.000000 0.000000
-7.306169 -0.000000 0.000000
-7.306169 0.000000 0.000000
-7.306169 -0.000000 0.000000
-7.306169 -0.000000 0.000000
-7.306169 0.000000 0.000000
-7.306169 0.000000 0.000000
-7.306169 0.000000 0.000000
-7.306169 -0.000000 0.000000
-7.306169 -0.000003 0.000000
-7.306236 0.009461 0.000000
-7.378804 0.374373 0.000000
7.379056 0.357476 0.000000
7.312842 0.009012 0.000000
7.312785 -0.000002 0.000000
7.312785 -0.000000 0.000000
7.312785 0.000000 0.000000
7.312785 0.000000 0.000000
7.312785 -0.000000 0.000000
7.312785 -0.000000 0.000000
7.312785 0.000000 0.000000
7.312785 -0.000000 0.000000
7.312785 0.000000 0.000000
7.312785 0.000000 0.000000
7.312785 -0.000000 0.000000
7.312785 -0.000000 0.000000
7.312785 -0.000000 0.000000
7.312785 0.000000 0.000000
7.312785 -0.000000 0.000000
7.312785 -0.000000 0.000000
7.312785 0.000000 0.000000
7.312785 0.000000 0.000000
7.312785 -0.000000 0.000000
7.312785 0.000000 0.000000
7.312785 0.000002 0.000000
7.312842 -0.009012 0.000000
7.379056 -0.357476 0.000000
-7.379115 -0.190887 0.000000
-7.310521 -0.005012 0.000000
-7.310462 0.000001 0.000000
-7.310462 0.000000 0.000000
-7.310462 0.000000 0.000000
-7.310462 0.000000 0.000000
-7.310462 -0.000000 0.000000
-7.310462 -0.000000 0.000000
-7.310462 0.000000 0.000000
-7.310462 -0.000000 0.000000
-7.310462 -0.000000 0.000000
-7.310462 0.000000 0.000000
-7.310462 -0.000000 0.000000
-7.310462 -0.000000 0.000000
-7.310462 -0.000000 0.000000
-7.310462 0.000000 0.000000
-7.310462 -0.000000 0.000000
-7.310462 -0.000000 0.000000
-7.310462 0.000000 0.000000
-7.310462 0.000000 0.000000
-7.310462 -0.000000 0.000000
-7.310462 -0.000000 0.000000
-7.310462 -0.000001 0.000000
-7.310521 0.005012 0.000000
-7.379115 0.190887 0.000000
7.359550 0.070447 0.000000
7.358060 0.001760 0.000000
7.358040 -0.000000 0.000000
7.358040 -0.000000 0.000000
7.358040 0.000000 0.000000
7.358040 0.000000 0.000000
7.358040 -0.000000 0.000000
7.358040 -0.000000 0.000000
7.358040 0.000000 0.000000
7.358040 -0.000000 0.000000
7.358040 -0.000000 0.000000
7.358040 0.000000 0.000000
7.358040 -0.000000 0.000000
7.358040 -0.000000 0.000000
7.358040 -0.000000 0.000000
7.358040 0.000000 0.000000
7.358040 -0.000000 0.000000
7.358040 -0.000000 0.000000
7.358040 0.000000 0.000000
7.358040 0.000000 0.000000
7.358040 -0.000000 0.000000
7.358040 0.000000 0.000000
7.358040 0.000000 0.000000
7.358060 -0.001760 0.000000
7.359550 -0.070447 0.000000
-7.357569 -0.018298 0.000000
-7.356028 -0.000533 0.000000
-7.356007 0.000000 0.000000
-7.356007 -0.000000 0.000000
-7.356007 0.000000 0.000000
-7.356007 0.000000 0.000000
-7.356007 -0.000000 0.000000
-7.356007 -0.000000 0.000000
-7.356007 0.000000 0.000000
-7.356007 -0.000000 0.000000
-7.356007 -0.000000 0.000000
-7.356007 0.000000 0.000000
-7.356007 -0.000000 0.000000
-7.356007 -0.000000 0.000000
-7.356007 -0.000000 0.000000
-7.356007 0.000000 0.000000
-7.356007 -0.000000 0.000000
-7.356007 -0.000000 0.000000
-7.356007 0.000000 0.000000
-7.356007 0.000000 0.000000
-7.356007 -0.000000 0.000000
-7.356007 0.000000 0.000000
-7.356007 -0.000000 0.000000
-7.356028 0.000533 0.000000
-7.357569 0.018298 0.000000
-10.000025 0.002917 0.000000
-10.000029 0.000017 0.000000
-10.000029 -0.000000 0.000000
-10.000029 -0.000000 0.000000
-10.000029 0.000000 0.000000
-10.000029 0.000000 0.000000
-10.000029 -0.000000 0.000000
-10.000029 -0.000000 0.000000
-10.000029 0.000000 0.000000
-10.000029 -0.000000 0.000000
-10.000029 -0.000000 0.000000
-10.000029 0.000000 0.000000
-10.000029 -0.000000 0.000000
-10.000029 -0.000000 0.000000
-10.000029 -0.000000 0.000000
-10.000029 0.000000 0.000000
-10.000029 -0.000000 0.000000
-10.000029 -0.000000 0.000000
-10.000029 0.000000 0.000000
-10.000029 0.000000 0.000000
-10.000029 -0.000000 0.000000
-10.000029 0.000000 0.000000
-10.000029 0.000000 0.000000
-10.000029 -0.000017 0.000000
-10.000025 -0.002917 0.000000
-10.000000 0.002914 0.000000
-10.000000 0.000017 0.000000
-10.000000 -0.000000 0.000000
-10.000000 -0.000000 0.000000
-10.000000 0.000000 0.000000
-10.000000 0.000000 0.000000
-10.000000 -0.000000 0.000000
-10.000000 -0.000000 0.000000
-10.000000 0.000000 0.000000
-10.000000 -0.000000 0.000000
-10.000000 -0.000000 0.000000
-10.000000 0.000000 0.000000
-10.000000 -0.000000 0.000000
-10.000000 -0.000000 0.000000
-10.000000 -0.000000 0.000000
-10.000000 0.000000 0.000000
-10.000000 -0.000000 0.000000
-10.000000 -0.000000 0.000000
-10.000000 0.000000 0.000000
-10.000000 0.000000 0.000000
-10.000000 -0.000000 0.000000
-10.000000 0.000000 0.000000
-10.000000 0.000000 0.000000
-10.000000 -0.000017 0.000000
-10.000000 -0.002914 0.000000
-10.000000 0.002914 0.000000
-10.000000 0.000017 0.000000
-10.000000 -0.000000 0.000000
-10.000000 -0.000000 0.000000
-10.000000 0.000000 0.000000
-10.000000 0.000000 0.000000
-10.000000 -0.000000 0.000000
-10.000000 -0.000000 0.000000
-10.000000 0.000000 0.000000
-10.000000 -0.000000 0.000000
-10.000000 0.000000 0.000000
-10.000000 0.000000 0.000000
-10.000000 -0.000000 0.000000
-10.000000 -0.000000 0.000000
-10.000000 -0.000000 0.000000
-10.000000 0.000000 0.000000
-10.000000 -0.000000 0.000000
-10.000000 -0.000000 0.000000
-10.000000 0.000000 0.000000
-10.000000 0.000000 0.000000
-10.000000 -0.000000 0.000000
-10.000000 0.000000 0.000000
-10.000000 0.000000 0.000000
-10.000000 -0.000017 0.000000
-10.000000 -0.002914 0.000000
-10.000000 0.002914 0.000000
-10.000000 0.000017 0.000000
-10.000000 -0.000000 0.000000
-10.000000 -0.000000 0.000000
-10.000000 0.000000 0.000000
-10.000000 0.000000 0.000000
-10.000000 -0.000000 0.000000
-10.000000 -0.000000 0.000000
-10.000000 0.000000 0.000000
-10.000000 -0.000000 0.000000
-10.000000 -0.000000 0.000000
-10.000000 0.000000 0.000000
-10.000000 -0.000000 0.000000
-10.000000 -0.000000 0.000000
-10.000000 -0.000000 0.000000
-10.000000 0.000000 0.000000
-10.000000 -0.000000 0.000000
-10.000000 -0.000000 0.000000
-10.000000 0.000000 0.000000
-10.000000 0.000000 0.000000
-10.000000 -0.000000 0.000000
-10.000000 0.000000 0.000000
-10.000000 0.000000 0.000000
-10.000000 -0.000017 0.000000
-10.000000 -0.002914 0.000000
-10.000000 0.002914 0.000000
-10.000000 0.000017 0.000000
-10.000000 -0.000000 0.000000
-10.000000 -0.000000 0.000000
-10.000000 0.000000 0.000000
-10.000000 0.000000 0.000000
-10.000000 -0.000000 0.000000
-10.000000 -0.000000 0.000000
-10.000000 0.000000 0.000000
-10.000000 -0.000000 0.000000
-10.000000 -0.000000 0.000000
-10.000000 0.000000 0.000000
-10.000000 -0.000000 0.000000
-10.000000 -0.000000 0.000000
-10.000000 -0.000000 0.000000
-10.000000 0.000000 0.000000
-10.000000 -0.000000 0.000000
-10.000000 -0.000000 0.000000
-10.000000 0.000000 0.000000
-10.000000 0.000000 0.000000
-10.000000 -0.000000 0.000000
-10.000000 0.000000 0.000000
-10.000000 0.000000 0.000000
-10.000000 -0.000017 0.000000
-10.000000 -0.002914 0.000000
-10.000000 0.002914 0.000000
-10.000000 0.000017 0.000000
-10.000000 -0.000000 0.000000
-10.000000 -0.000000 0.000000
-10.000000 0.000000 0.000000
-10.000000 0.000000 0.000000
-10.000000 -0.000000 0.000000
-10.000000 -0.000000 0.000000
-10.000000 0.000000 0.000000
-10.000000 -0.000000 0.000000
-10.000000 0.000000 0.000000
-10.000000 0.000000 0.000000
-10.000000 -0.000000 0.000000
-10.000000 -0.000000 0.000000
-10.000000 -0.000000 0.000000
-10.000000 0.000000 0.000000
-10.000000 -0.000000 0.000000
-10.000000 -0.000000 0.000000
-10.000000 0.000000 0.000000
-10.000000 0.000000 0.000000
-10.000000 -0.000000 0.000000
-10.000000 0.000000 0.000000
-10.000000 0.000000 0.000000
-10.000000 -0.000017 0.000000
-10.000000 -0.002914 0.000000
-10.000000 0.002914 0.000000