# vtk DataFile Version 4.0
hesp visualization file
ASCII
DATASET UNSTRUCTURED_GRID
POINTS 1250 double
33.382463 2.444567 4.000000
31.240749 3.775698 4.000000
31.927145 3.815626 4.000000
31.366728 4.478471 4.000000
30.790289 6.485403 4.000000
30.452057 6.734007 4.000000
30.451928 7.857231 4.000000
30.451927 8.979696 4.000000
30.451927 10.102158 4.000000
30.451927 11.224620 4.000000
30.451927 12.347083 4.000000
30.451927 13.469545 4.000000
30.451927 14.592007 4.000000
30.451927 15.714469 4.000000
30.451927 16.836931 4.000000
30.451927 17.959393 4.000000
30.451927 19.081855 4.000000
30.451927 20.204317 4.000000
30.451928 21.326783 4.000000
30.452057 22.450007 4.000000
30.790250 22.698527 4.000000
31.366768 24.705687 4.000000
31.927346 25.361996 4.000000
31.228082 25.399042 4.000000
33.382414 26.739429 4.000000
30.869855 -3.977033 4.000000
32.885177 1.745183 4.000000
30.726494 2.071814 4.000000
30.117202 4.220437 4.000000
31.030688 6.468693 4.000000
31.534714 7.435138 4.000000
30.874431 7.857165 4.000000
30.874411 8.979696 4.000000
30.874411 10.102158 4.000000
30.874411 11.224620 4.000000
30.874411 12.347083 4.000000
30.874411 13.469545 4.000000
30.874411 14.592007 4.000000
30.874411 15.714469 4.000000
30.874411 16.836931 4.000000
30.874411 17.959393 4.000000
30.874411 19.081855 4.000000
30.874411 20.204317 4.000000
30.874431 21.326848 4.000000
31.534735 21.748908 4.000000
31.030634 22.715317 4.000000
30.116568 24.968502 4.000000
30.725362 27.111347 4.000000
32.885176 27.438832 4.000000
30.869855 33.161046 4.000000
30.447209 0.961300 4.000000
31.196168 2.899530 4.000000
31.296570 4.947657 4.000000
32.374441 5.411835 4.000000
31.078922 5.590774 4.000000
31.091013 6.749385 4.000000
31.778500 7.857122 4.000000
31.778545 8.979696 4.000000
31.778545 10.102158 4.000000
31.778545 11.224620 4.000000
31.778545 12.347083 4.000000
31.778545 13.469545 4.000000
31.778545 14.592007 4.000000
31.778545 15.714469 4.000000
31.778545 16.836931 4.000000
31.778545 17.959393 4.000000
31.778545 19.081855 4.000000
31.778545 20.204317 4.000000
31.778500 21.326892 4.000000
31.091039 22.434635 4.000000
31.078919 23.593202 4.000000
32.375763 23.771731 4.000000
31.296497 24.236454 4.000000
31.196068 26.284581 4.000000
30.447209 28.222713 4.000000
31.729665 -0.952279 4.000000
31.207887 -0.861708 4.000000
32.932323 3.836823 4.000000
31.566391 4.127907 4.000000
32.204963 5.719852 4.000000
32.200691 6.734910 4.000000
32.200599 7.857232 4.000000
32.200601 8.979696 4.000000
32.200601 10.102158 4.000000
32.200601 11.224620 4.000000
32.200601 12.347083 4.000000
32.200601 13.469545 4.000000
32.200601 14.592007 4.000000
32.200601 15.714469 4.000000
32.200601 16.836931 4.000000
32.200601 17.959393 4.000000
32.200601 19.081855 4.000000
32.200601 20.204317 4.000000
32.200599 21.326781 4.000000
32.200691 22.449103 4.000000
32.204523 23.465689 4.000000
31.579655 25.065624 4.000000
32.929386 25.328691 4.000000
31.207886 30.045721 4.000000
31.729665 30.136293 4.000000
34.593711 3.374149 4.000000
30.434841 2.998736 4.000000
31.713498 2.431078 4.000000
33.364231 5.481004 4.000000
33.132821 5.582393 4.000000
33.105438 6.734684 4.000000
33.105476 7.857235 4.000000
33.105476 8.979696 4.000000
33.105476 10.102158 4.000000
33.105476 11.224620 4.000000
33.105476 12.347083 4.000000
33.105476 13.469545 4.000000
33.105476 14.592007 4.000000
33.105476 15.714469 4.000000
33.105476 16.836931 4.000000
33.105476 17.959393 4.000000
33.105476 19.081855 4.000000
33.105476 20.204317 4.000000
33.105476 21.326779 4.000000
33.105438 22.449329 4.000000
33.132300 23.601418 4.000000
33.357871 23.694624 4.000000
31.713831 26.753018 4.000000
30.434835 26.185272 4.000000
34.593709 25.809858 4.000000
31.075037 -0.029887 4.000000
32.970413 0.340425 4.000000
34.912374 4.190836 4.000000
33.251463 4.463961 4.000000
33.610093 5.682160 4.000000
33.526802 6.734765 4.000000
33.526802 7.857234 4.000000
33.526802 8.979696 4.000000
33.526802 10.102158 4.000000
33.526802 11.224620 4.000000
33.526802 12.347083 4.000000
33.526802 13.469545 4.000000
33.526802 14.592007 4.000000
33.526802 15.714469 4.000000
33.526802 16.836931 4.000000
33.526802 17.959393 4.000000
33.526802 19.081855 4.000000
33.526802 20.204317 4.000000
33.526802 21.326779 4.000000
33.526802 22.449249 4.000000
33.607912 23.508078 4.000000
33.240259 24.747376 4.000000
34.911880 24.992975 4.000000
32.970458 28.843600 4.000000
31.075037 29.213901 4.000000
31.941829 2.133285 4.000000
35.950719 2.500489 4.000000
32.854830 3.141087 4.000000
33.730118 4.472437 4.000000
34.432484 5.612156 4.000000
34.432639 6.734776 4.000000
34.432640 7.857234 4.000000
34.432640 8.979696 4.000000
34.432640 10.102158 4.000000
34.432640 11.224620 4.000000
34.432640 12.347083 4.000000
34.432640 13.469545 4.000000
34.432640 14.592007 4.000000
34.432640 15.714469 4.000000
34.432640 16.836931 4.000000
34.432640 17.959393 4.000000
34.432640 19.081855 4.000000
34.432640 20.204317 4.000000
34.432640 21.326779 4.000000
34.432639 22.449237 4.000000
34.432486 23.571854 4.000000
33.730163 24.714161 4.000000
32.854869 26.043179 4.000000
35.950606 26.683561 4.000000
31.941909 27.051197 4.000000
36.681095 -2.115290 4.000000
33.855321 4.177909 4.000000
35.433861 2.982655 4.000000
34.749706 4.904756 4.000000
34.853131 5.612379 4.000000
34.853115 6.734772 4.000000
34.853115 7.857234 4.000000
34.853115 8.979696 4.000000
34.853115 10.102158 4.000000
34.853115 11.224620 4.000000
34.853115 12.347083 4.000000
34.853115 13.469545 4.000000
34.853115 14.592007 4.000000
34.853115 15.714469 4.000000
34.853115 16.836931 4.000000
34.853115 17.959393 4.000000
34.853115 19.081855 4.000000
34.853115 20.204317 4.000000
34.853115 21.326779 4.000000
34.853115 22.449241 4.000000
34.853131 23.571638 4.000000
34.758523 24.270494 4.000000
35.433392 26.201122 4.000000
33.879058 25.000473 4.000000
36.681095 31.299304 4.000000
33.569367 3.029929 4.000000
35.453076 2.209016 4.000000
35.578360 4.094230 4.000000
36.054484 5.368105 4.000000
35.760110 5.611940 4.000000
35.759872 6.734772 4.000000
35.759872 7.857234 4.000000
35.759872 8.979696 4.000000
35.759872 10.102158 4.000000
35.759872 11.224620 4.000000
35.759872 12.347083 4.000000
35.759872 13.469545 4.000000
35.759872 14.592007 4.000000
35.759872 15.714469 4.000000
35.759872 16.836931 4.000000
35.759872 17.959393 4.000000
35.759872 19.081855 4.000000
35.759872 20.204317 4.000000
35.759872 21.326779 4.000000
35.759872 22.449242 4.000000
35.760110 23.572071 4.000000
36.054967 23.815815 4.000000
35.569517 25.096220 4.000000
35.453082 26.974958 4.000000
33.569366 26.154084 4.000000
33.423967 1.124984 4.000000
35.538281 0.253521 4.000000
35.260740 3.460913 4.000000
36.179682 4.498491 4.000000
36.179400 5.612115 4.000000
36.179562 6.734772 4.000000
36.179562 7.857234 4.000000
36.179562 8.979696 4.000000
36.179562 10.102158 4.000000
36.179562 11.224620 4.000000
36.179562 12.347083 4.000000
36.179562 13.469545 4.000000
36.179562 14.592007 4.000000
36.179562 15.714469 4.000000
36.179562 16.836931 4.000000
36.179562 17.959393 4.000000
36.179562 19.081855 4.000000
36.179562 20.204317 4.000000
36.179562 21.326779 4.000000
36.179562 22.449241 4.000000
36.179402 23.571895 4.000000
36.179718 24.683384 4.000000
35.260748 25.722981 4.000000
35.538281 28.930491 4.000000
33.423967 28.059030 4.000000
34.358200 0.990563 4.000000
37.434790 2.484235 4.000000
37.583035 3.572899 4.000000
37.056600 4.484704 4.000000
37.086961 5.612311 4.000000
37.086976 6.734772 4.000000
37.086976 7.857234 4.000000
37.086976 8.979696 4.000000
37.086976 10.102158 4.000000
37.086976 11.224620 4.000000
37.086976 12.347083 4.000000
37.086976 13.469545 4.000000
37.086976 14.592007 4.000000
37.086976 15.714469 4.000000
37.086976 16.836931 4.000000
37.086976 17.959393 4.000000
37.086976 19.081855 4.000000
37.086976 20.204317 4.000000
37.086976 21.326779 4.000000
37.086976 22.449241 4.000000
37.086961 23.571702 4.000000
37.056590 24.701012 4.000000
37.583144 25.611032 4.000000
37.434972 26.699886 4.000000
34.358200 28.193450 4.000000
35.667942 1.124402 4.000000
36.064898 2.148155 4.000000
37.291537 4.517453 4.000000
37.530534 4.490702 4.000000
37.506108 5.612309 4.000000
37.506109 6.734772 4.000000
37.506109 7.857234 4.000000
37.506109 8.979696 4.000000
37.506109 10.102158 4.000000
37.506109 11.224620 4.000000
37.506109 12.347083 4.000000
37.506109 13.469545 4.000000
37.506109 14.592007 4.000000
37.506109 15.714469 4.000000
37.506109 16.836931 4.000000
37.506109 17.959393 4.000000
37.506109 19.081855 4.000000
37.506109 20.204317 4.000000
37.506109 21.326779 4.000000
37.506109 22.449241 4.000000
37.506108 23.571704 4.000000
37.530472 24.693088 4.000000
37.291452 24.666503 4.000000
36.064951 27.035935 4.000000
35.667942 28.059611 4.000000
36.792002 1.125156 4.000000
36.792296 2.245942 4.000000
37.846361 3.279218 4.000000
38.413587 4.490366 4.000000
38.413774 5.612309 4.000000
38.413775 6.734772 4.000000
38.413775 7.857234 4.000000
38.413775 8.979696 4.000000
38.413775 10.102158 4.000000
38.413775 11.224620 4.000000
38.413775 12.347083 4.000000
38.413775 13.469545 4.000000
38.413775 14.592007 4.000000
38.413775 15.714469 4.000000
38.413775 16.836931 4.000000
38.413775 17.959393 4.000000
38.413775 19.081855 4.000000
38.413775 20.204317 4.000000
38.413775 21.326779 4.000000
38.413775 22.449241 4.000000
38.413774 23.571704 4.000000
38.413587 24.693797 4.000000
37.846170 25.904793 4.000000
36.792296 26.938071 4.000000
36.792002 28.058857 4.000000
37.914468 1.125154 4.000000
37.914399 2.244996 4.000000
38.833170 3.388603 4.000000
38.832700 4.489796 4.000000
38.832699 5.612310 4.000000
38.832699 6.734772 4.000000
38.832699 7.857234 4.000000
38.832699 8.979696 4.000000
38.832699 10.102158 4.000000
38.832699 11.224620 4.000000
38.832699 12.347083 4.000000
38.832699 13.469545 4.000000
38.832699 14.592007 4.000000
38.832699 15.714469 4.000000
38.832699 16.836931 4.000000
38.832699 17.959393 4.000000
38.832699 19.081855 4.000000
38.832699 20.204317 4.000000
38.832699 21.326779 4.000000
38.832699 22.449241 4.000000
[...]
POINT_DATA 1250
SCALARS m double
LOOKUP_TABLE default
1.000000
1.000000
1.000000
1.000000
1.000000
1.000000
1.000000
1.000000
1.000000
1.000000
1.000000
1.000000
1.000000
1.000000
1.000000
1.000000
1.000000
1.000000
1.000000
1.000000
1.000000
1.000000
1.000000
1.000000
1.000000
1.000000
1.000000
1.000000
1.000000
1.000000
1.000000
1.000000
1.000000
1.000000
1.000000
1.000000
1.000000
1.000000
1.000000
1.000000
1.000000
1.000000
1.000000
1.000000
1.000000
1.000000
1.000000
1.000000
1.000000
1.000000
1.000000
1.000000
1.000000
1.000000
1.000000
1.000000
1.000000
1.000000
1.000000
1.000000
1.000000
1.000000
1.000000
1.000000
1.000000
1.000000
1.000000
1.000000
1.000000
1.000000
1.000000
1.000000
1.000000
1.000000
1.000000
1.000000
1.000000
1.000000
1.000000
1.000000
1.000000
1.000000
1.000000
1.000000
1.000000
1.000000
1.000000
1.000000
1.000000
1.000000
1.000000
1.000000
1.000000
1.000000
1.000000
1.000000
1.000000
1.000000
1.000000
1.000000
1.000000
1.000000
1.000000
1.000000
1.000000
1.000000
1.000000
1.000000
1.000000
1.000000
1.000000
1.000000
1.000000
1.000000
1.000000
1.000000
1.000000
1.000000
1.000000
1.000000
1.000000
1.000000
1.000000
1.000000
1.000000
1.000000
1.000000
1.000000
1.000000
1.000000
1.000000
1.000000
1.000000
1.000000
1.000000
1.000000
1.000000
1.000000
1.000000
1.000000
1.000000
1.000000
1.000000
1.000000
1.000000
1.000000
1.000000
1.000000
1.000000
1.000000
1.000000
1.000000
1.000000
1.000000
1.000000
1.000000
1.000000
1.000000
1.000000
1.000000
1.000000
1.000000
1.000000
1.000000
1.000000
1.000000
1.000000
1.000000
1.000000
1.000000
1.000000
1.000000
1.000000
1.000000
1.000000
1.000000
1.000000
1.000000
1.000000
1.000000
1.000000
1.000000
1.000000
1.000000
1.000000
1.000000
1.000000
1.000000
1.000000
1.000000
1.000000
1.000000
1.000000
1.000000
1.000000
1.000000
1.000000
1.000000
1.000000
1.000000
1.000000
1.000000
1.000000
1.000000
1.000000
1.000000
1.000000
1.000000
1.000000
1.000000
1.000000
1.000000
1.000000
1.000000
1.000000
1.000000
1.000000
1.000000
1.000000
1.000000
1.000000
1.000000
1.000000
1.000000
1.000000
1.000000
1.000000
1.000000
1.000000
1.000000
1.000000
1.000000
1.000000
1.000000
1.000000
1.000000
1.000000
1.000000
1.000000
1.000000
1.000000
1.000000
1.000000
1.000000
1.000000
1.000000
1.000000
1.000000
1.000000
1.000000
1.000000
1.000000
1.000000
1.000000
1.000000
1.000000
1.000000
1.000000
1.000000
1.000000
1.000000
1.000000
1.000000
1.000000
1.000000
1.000000
1.000000
1.000000
1.000000
1.000000
1.000000
1.000000
1.000000
1.000000
1.000000
1.000000
1.000000
1.000000
1.000000
1.000000
1.000000
1.000000
1.000000
1.000000
1.000000
1.000000
1.000000
1.000000
1.000000
1.000000
1.000000
1.000000
1.000000
1.000000
1.000000
1.000000
1.000000
1.000000
1.000000
1.000000
1.000000
1.000000
1.000000
1.000000
1.000000
1.000000
1.000000
1.000000
1.000000
1.000000
1.000000
1.000000
1.000000
1.000000
1.000000
1.000000
1.000000
1.000000
1.000000
1.000000
1.000000
1.000000
1.000000
1.000000
1.000000
1.000000
1.000000
1.000000
1.000000
1.000000
1.000000
1.000000
1.000000
1.000000
1.000000
1.000000
1.000000
1.000000
1.000000
1.000000
1.000000
1.000000
1.000000
1.000000
1.000000
1.000000
1.000000
1.000000
1.000000
1.000000
1.000000
1.000000
1.000000
1.000000
1.000000
1.000000
1.000000
1.000000
1.000000
1.000000
1.000000
1.000000
1.000000
1.000000
1.000000
1.000000
1.000000
1.000000
1.000000
1.000000
1.000000
1.000000
1.000000
1.000000
1.000000
1.000000
1.000000
1.000000
1.000000
1.000000
1.000000
1.000000
1.000000
1.000000
1.000000
1.000000
1.000000
1.000000
1.000000
1.000000
1.000000
1.000000
1.000000
1.000000
1.000000
1.000000
1.000000
1.000000
1.000000
1.000000
1.000000
1.000000
1.000000
1.000000
1.000000
1.000000
1.000000
1.000000
1.000000
1.000000
1.000000
1.000000
1.000000
1.000000
1.000000
1.000000
1.000000
1.000000
1.000000
1.000000
1.000000
1.000000
1.000000
1.000000
1.000000
1.000000
1.000000
1.000000
1.000000
1.000000
1.000000
1.000000
1.000000
1.000000
1.000000
1.000000
1.000000
1.000000
1.000000
1.000000
1.000000
1.000000
1.000000
1.000000
1.000000
1.000000
1.000000
1.000000
1.000000
1.000000
1.000000
1.000000
1.000000
1.000000
1.000000
1.000000
1.000000
1.000000
1.000000
1.000000
1.000000
1.000000
1.000000
1.000000
1.000000
1.000000
1.000000
1.000000
1.000000
1.000000
1.000000
1.000000
1.000000
1.000000
1.000000
1.000000
1.000000
1.000000
1.000000
1.000000
1.000000
1.000000
1.000000
1.000000
1.000000
1.000000
1.000000
1.000000
1.000000
1.000000
1.000000
1.000000
1.000000
1.000000
1.000000
1.000000
1.000000
1.000000
1.000000
1.000000
1.000000
1.000000
1.000000
1.000000
1.000000
1.000000
1.000000
1.000000
1.000000
1.000000
1.000000
1.000000
1.000000
1.000000
1.000000
1.000000
1.000000
1.000000
1.000000
1.000000
1.000000
1.000000
1.000000
1.000000
1.000000
1.000000
1.000000
1.000000
1.000000
1.000000
1.000000
1.000000
1.000000
1.000000
1.000000
1.000000
1.000000
1.000000
1.000000
1.000000
1.000000
1.000000
1.000000
1.000000
1.000000
1.000000
1.000000
1.000000
1.000000
1.000000
1.000000
1.000000
1.000000
1.000000
1.000000
1.000000
1.000000
1.000000
1.000000
1.000000
1.000000
1.000000
1.000000
1.000000
1.000000
1.000000
1.000000
1.000000
1.000000
1.000000
1.000000
1.000000
1.000000
1.000000
1.000000
1.000000
1.000000
1.000000
1.000000
1.000000
1.000000
1.000000
1.000000
1.000000
1.000000
1.000000
1.000000
1.000000
1.000000
1.000000
1.000000
1.000000
1.000000
1.000000
1.000000
1.000000
1.000000
1.000000
1.000000
1.000000
1.000000
1.000000
1.000000
1.000000
1.000000
1.000000
1.000000
1.000000
1.000000
1.000000
1.000000
1.000000
1.000000
1.000000
1.000000
1.000000
1.000000
1.000000
1.000000
1.000000
1.000000
1.000000
1.000000
1.000000
1.000000
1.000000
1.000000
1.000000
1.000000
1.000000
1.000000
1.000000
1.000000
1.000000
1.000000
1.000000
1.000000
1.000000
1.000000
1.000000
1.000000
1.000000
1.000000
1.000000
1.000000
1.000000
1.000000
1.000000
1.000000
1.000000
1.000000
1.000000
1.000000
1.000000
1.000000
1.000000
1.000000
1.000000
1.000000
1.000000
1.000000
1.000000
1.000000
1.000000
1.000000
1.000000
1.000000
1.000000
1.000000
1.000000
1.000000
1.000000
1.000000
1.000000
1.000000
1.000000
1.000000
1.000000
1.000000
1.000000
1.000000
1.000000
1.000000
1.000000
1.000000
1.000000
1.000000
1.000000
1.000000
1.000000
1.000000
1.000000
1.000000
1.000000
1.000000
1.000000
1.000000
1.000000
1.000000
1.000000
1.000000
1.000000
1.000000
1.000000
1.000000
1.000000
1.000000
1.000000
1.000000
1.000000
1.000000
1.000000
1.000000
1.000000
1.000000
1.000000
1.000000
1.000000
1.000000
1.000000
1.000000
1.000000
1.000000
1.000000
1.000000
1.000000
1.000000
1.000000
1.000000
1.000000
1.000000
1.000000
1.000000
1.000000
1.000000
1.000000
1.000000
1.000000
1.000000
1.000000
1.000000
1.000000
1.000000
1.000000
1.000000
1.000000
1.000000
1.000000
1.000000
1.000000
1.000000
1.000000
1.000000
1.000000
1.000000
1.000000
1.000000
1.000000
1.000000
1.000000
1.000000
1.000000
1.000000
1.000000
1.000000
1.000000
1.000000
1.000000
1.000000
1.000000
1.000000
1.000000
1.000000
1.000000
1.000000
1.000000
1.000000
1.000000
1.000000
1.000000
1.000000
1.000000
1.000000
1.000000
1.000000
1.000000
1.000000
1.000000
1.000000
1.000000
1.000000
1.000000
1.000000
1.000000
1.000000
1.000000
1.000000
1.000000
1.000000
1.000000
1.000000
1.000000
1.000000
1.000000
1.000000
1.000000
1.000000
1.000000
1.000000
1.000000
1.000000
1.000000
1.000000
1.000000
1.000000
1.000000
1.000000
1.000000
1.000000
1.000000
1.000000
1.000000
1.000000
1.000000
1.000000
1.000000
1.000000
1.000000
1.000000
1.000000
1.000000
1.000000
1.000000
1.000000
1.000000
1.000000
1.000000
1.000000
1.000000
1.000000
1.000000
1.000000
1.000000
1.000000
1.000000
1.000000
1.000000
1.000000
1.000000
1.000000
1.000000
1.000000
1.000000
1.000000
1.000000
1.000000
1.000000
1.000000
1.000000
1.000000
1.000000
1.000000
1.000000
1.000000
1.000000
1.000000
1.000000
1.000000
1.000000
1.000000
1.000000
1.000000
1.000000
1.000000
1.000000
1.000000
1.000000
1.000000
1.000000
1.000000
1.000000
1.000000
1.000000
1.000000
1.000000
1.000000
1.000000
1.000000
1.000000
1.000000
1.000000
1.000000
1.000000
1.000000
1.000000
1.000000
1.000000
1.000000
1.000000
1.000000
1.000000
1.000000
1.000000
1.000000
1.000000
1.000000
1.000000
1.000000
1.000000
1.000000
1.000000
1.000000
1.000000
1.000000
1.000000
1.000000
1.000000
1.000000
1.000000
1.000000
1.000000
1.000000
1.000000
1.000000
1.000000
1.000000
1.000000
1.000000
1.000000
1.000000
1.000000
1.000000
1.000000
1.000000
1.000000
1.000000
1.000000
1.000000
1.000000
1.000000
1.000000
1.000000
1.000000
1.000000
1.000000
1.000000
1.000000
1.000000
1.000000
1.000000
1.000000
1.000000
1.000000
1.000000
1.000000
1.000000
1.000000
1.000000
1.000000
1.000000
1.000000
1.000000
1.000000
1.000000
1.000000
1.000000
1.000000
1.000000
1.000000
1.000000
1.000000
1.000000
1.000000
1.000000
1.000000
1.000000
1.000000
1.000000
1.000000
1.000000
1.000000
1.000000
1.000000
1.000000
1.000000
1.000000
1.000000
1.000000
1.000000
1.000000
1.000000
1.000000
1.000000
1.000000
1.000000
1.000000
1.000000
1.000000
1.000000
1.000000
1.000000
1.000000
1.000000
1.000000
1.000000
1.000000
1.000000
1.000000
1.000000
1.000000
1.000000
1.000000
1.000000
1.000000
1.000000
1.000000
1.000000
1.000000
1.000000
1.000000
1.000000
1.000000
1.000000
1.000000
1.000000
1.000000
1.000000
1.000000
1.000000
1.000000
1.000000
1.000000
1.000000
1.000000
1.000000
1.000000
1.000000
1.000000
1.000000
1.000000
1.000000
1.000000
1.000000
1.000000
1.000000
1.000000
1.000000
1.000000
1.000000
1.000000
1.000000
1.000000
1.000000
1.000000
1.000000
1.000000
1.000000
1.000000
1.000000
1.000000
1.000000
1.000000
1.000000
1.000000
1.000000
1.000000
1.000000
1.000000
1.000000
1.000000
1.000000
1.000000
1.000000
1.000000
1.000000
1.000000
1.000000
1.000000
1.000000
1.000000
1.000000
1.000000
1.000000
1.000000
1.000000
1.000000
1.000000
1.000000
1.000000
1.000000
1.000000
1.000000
1.000000
1.000000
1.000000
1.000000
1.000000
1.000000
1.000000
1.000000
1.000000
1.000000
1.000000
1.000000
1.000000
1.000000
1.000000
1.000000
1.000000
1.000000
1.000000
1.000000
1.000000
1.000000
1.000000
1.000000
1.000000
1.000000
1.000000
1.000000
1.000000
1.000000
1.000000
1.000000
1.000000
1.000000
1.000000
1.000000
1.000000
1.000000
1.000000
1.000000
1.000000
1.000000
1.000000
1.000000
1.000000
1.000000
1.000000
1.000000
1.000000
1.000000
1.000000
1.000000
1.000000
1.000000
1.000000
1.000000
1.000000
1.000000
1.000000
1.000000
1.000000
1.000000
1.000000
1.000000
1.000000
1.000000
1.000000
1.000000
1.000000
1.000000
1.000000
1.000000
1.000000
1.000000
1.000000
1.000000
1.000000
1.000000
1.000000
1.000000
1.000000
1.000000
1.000000
1.000000
1.000000
1.000000
1.000000
1.000000
1.000000
1.000000
1.000000
1.000000
1.000000
1.000000
1.000000
1.000000
1.000000
1.000000
1.000000
1.000000
1.000000
1.000000
1.000000
1.000000
1.000000
1.000000
1.000000
1.000000
1.000000
1.000000
1.000000
1.000000
1.000000
1.000000
1.000000
1.000000
1.000000
1.000000
1.000000
1.000000
1.000000
1.000000
1.000000
1.000000
1.000000
1.000000
1.000000
1.000000
1.000000
1.000000
1.000000
1.000000
1.000000
1.000000
1.000000
1.000000
1.000000
1.000000
1.000000
1.000000
1.000000
1.000000
1.000000
1.000000
1.000000
1.000000
1.000000
1.000000
1.000000
1.000000
1.000000
1.000000
1.000000
1.000000
1.000000
1.000000
1.000000
1.000000
VECTORS v double
3.534944 7.489192 0.000000
-5.654837 -8.832736 0.000000
7.657967 1.592146 0.000000
10.018177 -0.258649 0.000000
1.362084 9.265482 0.000000
10.040645 -0.051581 0.000000
10.016579 -0.000123 0.000000
10.016510 -0.000004 0.000000
10.016509 0.000000 0.000000
10.016509 0.000000 0.000000
10.016509 -0.000000 0.000000
10.016509 0.000000 0.000000
10.016509 -0.000000 0.000000
10.016509 -0.000000 0.000000
10.016509 -0.000000 0.000000
10.016509 -0.000000 0.000000
10.016509 -0.000000 0.000000
10.016510 0.000004 0.000000
10.016579 0.000123 0.000000
10.040694 0.051630 0.000000
1.369280 -9.269878 0.000000
10.016740 0.255633 0.000000
7.625103 -1.848356 0.000000
-6.377953 8.419654 0.000000
3.534489 -7.489343 0.000000
-2.630983 -13.726701 0.000000
8.128551 -2.582580 0.000000
-5.431973 -9.789407 0.000000
-6.359080 1.540497 0.000000
7.657995 -3.449849 0.000000
9.212686 13.569399 0.000000
-10.015589 -0.003682 0.000000
-10.017552 -0.000010 0.000000
-10.017554 0.000000 0.000000
-10.017554 0.000000 0.000000
-10.017554 -0.000000 0.000000
-10.017554 0.000000 0.000000
-10.017554 -0.000000 0.000000
-10.017554 -0.000000 0.000000
-10.017554 -0.000000 0.000000
-10.017554 -0.000000 0.000000
-10.017554 -0.000000 0.000000
-10.017552 0.000010 0.000000
-10.015590 0.003681 0.000000
9.212921 -13.569373 0.000000
7.648152 3.454251 0.000000
-6.019859 -1.461055 0.000000
-5.442838 9.780954 0.000000
8.128546 2.582579 0.000000
-2.630983 13.726701 0.000000
9.313558 0.070698 0.000000
-8.371273 4.703992 0.000000
7.232303 -6.343183 0.000000
7.519471 0.849561 0.000000
-10.001798 -0.268130 0.000000
-8.375275 3.006546 0.000000
10.009561 -0.015138 0.000000
10.016766 -0.000010 0.000000
10.016767 0.000000 0.000000
10.016767 0.000000 0.000000
10.016767 0.000000 0.000000
10.016767 0.000000 0.000000
10.016767 -0.000000 0.000000
10.016767 -0.000000 0.000000
10.016767 -0.000000 0.000000
10.016767 -0.000000 0.000000
10.016767 -0.000000 0.000000
10.016766 0.000010 0.000000
10.009563 0.015135 0.000000
-8.373428 -3.007316 0.000000
-10.001844 0.267649 0.000000
7.568898 -0.962326 0.000000
7.231530 6.344156 0.000000
-8.372555 -4.702916 0.000000
9.313555 -0.070699 0.000000
-0.475723 -3.685186 0.000000
-6.855288 -10.621067 0.000000
-4.698999 -5.523070 0.000000
4.470211 8.289486 0.000000
-9.950122 7.439566 0.000000
-9.997581 0.003247 0.000000
-10.019917 -0.000243 0.000000
-10.019523 -0.000004 0.000000
-10.019521 0.000000 0.000000
-10.019521 0.000000 0.000000
-10.019521 0.000000 0.000000
-10.019521 0.000000 0.000000
-10.019521 -0.000000 0.000000
-10.019521 -0.000000 0.000000
-10.019521 -0.000000 0.000000
-10.019521 -0.000000 0.000000
-10.019521 -0.000000 0.000000
-10.019523 0.000004 0.000000
-10.019917 0.000243 0.000000
-9.997581 -0.003247 0.000000
-9.992708 -7.317483 0.000000
5.237590 -7.703647 0.000000
-4.832662 5.079758 0.000000
-6.855293 10.621066 0.000000
-0.475722 3.685188 0.000000
5.398493 5.612852 0.000000
9.556530 2.251432 0.000000
-8.847465 -4.842163 0.000000
-9.333485 0.002816 0.000000
9.125091 -0.377555 0.000000
10.017793 -0.002585 0.000000
10.018210 0.000010 0.000000
10.018225 -0.000001 0.000000
10.018226 0.000000 0.000000
10.018226 0.000000 0.000000
10.018226 0.000000 0.000000
10.018226 0.000000 0.000000
10.018226 -0.000000 0.000000
10.018226 -0.000000 0.000000
10.018226 -0.000000 0.000000
10.018226 -0.000000 0.000000
10.018226 -0.000000 0.000000
10.018225 0.000001 0.000000
10.018210 -0.000010 0.000000
10.017793 0.002586 0.000000
8.384932 0.111142 0.000000
-8.980226 -0.285021 0.000000
-8.846448 4.823184 0.000000
9.556468 -2.251454 0.000000
5.398468 -5.612916 0.000000
-1.126017 -6.323288 0.000000
-1.993106 -10.927793 0.000000
8.711014 4.724497 0.000000
-7.604972 10.951236 0.000000
2.994955 10.879662 0.000000
-10.021708 -0.000237 0.000000
-10.021709 -0.000000 0.000000
-10.021709 -0.000000 0.000000
-10.021709 0.000000 0.000000
-10.021709 0.000000 0.000000
-10.021709 0.000000 0.000000
-10.021709 0.000000 0.000000
-10.021709 -0.000000 0.000000
-10.021709 -0.000000 0.000000
-10.021709 -0.000000 0.000000
-10.021709 -0.000000 0.000000
-10.021709 -0.000000 0.000000
-10.021709 0.000000 0.000000
-10.021709 0.000000 0.000000
-10.021709 0.000236 0.000000
3.267583 -10.364264 0.000000
-8.010207 -10.035623 0.000000
8.707464 -4.722969 0.000000
-1.992670 10.927918 0.000000
-1.126021 6.323290 0.000000
-0.066010 -4.424856 0.000000
2.471366 0.084399 0.000000
-9.636581 -1.212454 0.000000
-10.108208 0.112762 0.000000
10.016718 -0.004306 0.000000
10.020380 0.000097 0.000000
10.020404 -0.000000 0.000000
10.020404 0.000000 0.000000
10.020404 0.000000 0.000000
10.020404 -0.000000 0.000000
10.020404 0.000000 0.000000
10.020404 0.000000 0.000000
10.020404 -0.000000 0.000000
10.020404 -0.000000 0.000000
10.020404 -0.000000 0.000000
10.020404 0.000000 0.000000
10.020404 -0.000000 0.000000
10.020404 -0.000000 0.000000
10.020404 0.000000 0.000000
10.020381 -0.000097 0.000000
10.016824 0.004236 0.000000
-10.127499 -0.243807 0.000000
-9.636353 1.214406 0.000000
2.469421 -0.083320 0.000000
-0.063869 4.446358 0.000000
4.837053 -9.997753 0.000000
10.532920 1.864903 0.000000
1.673712 -3.377596 0.000000
-8.312348 9.313394 0.000000
-10.023106 0.000340 0.000000
-10.023470 -0.000010 0.000000
-10.023471 0.000000 0.000000
-10.023471 -0.000000 0.000000
-10.023471 0.000000 0.000000
-10.023471 -0.000000 0.000000
-10.023471 0.000000 0.000000
-10.023471 0.000000 0.000000
-10.023471 -0.000000 0.000000
-10.023471 -0.000000 0.000000
-10.023471 -0.000000 0.000000
-10.023471 0.000000 0.000000
-10.023471 -0.000000 0.000000
-10.023471 0.000000 0.000000
-10.023471 -0.000000 0.000000
-10.023470 0.000009 0.000000
-10.023113 -0.000141 0.000000
-8.126540 -9.487065 0.000000
1.669950 3.376053 0.000000
11.211051 -2.134227 0.000000
4.837053 9.997753 0.000000
-5.834765 6.450508 0.000000
-9.873133 -1.577812 0.000000
6.378133 -7.063708 0.000000
4.425375 12.621812 0.000000
10.062216 -0.041152 0.000000
10.022650 -0.000029 0.000000
10.022646 0.000000 0.000000
10.022646 0.000000 0.000000
10.022646 0.000000 0.000000
10.022646 -0.000000 0.000000
10.022646 0.000000 0.000000
10.022646 0.000000 0.000000
10.022646 -0.000000 0.000000
10.022646 -0.000000 0.000000
10.022646 -0.000000 0.000000
10.022646 0.000000 0.000000
10.022646 -0.000000 0.000000
10.022646 -0.000000 0.000000
10.022646 -0.000000 0.000000
10.022650 0.000029 0.000000
10.062126 0.040974 0.000000
4.426696 -12.616920 0.000000
6.191380 7.208684 0.000000
-9.872842 1.576750 0.000000
-5.834772 -6.450503 0.000000
-10.004041 0.004813 0.000000
-3.933280 -8.258515 0.000000
-10.071752 0.508328 0.000000
-10.000708 0.200772 0.000000
-9.886495 0.273057 0.000000
-10.024477 -0.000027 0.000000
-10.024472 -0.000000 0.000000
-10.024472 0.000000 0.000000
-10.024472 0.000000 0.000000
-10.024472 -0.000000 0.000000
-10.024472 0.000000 0.000000
-10.024472 0.000000 0.000000
-10.024472 -0.000000 0.000000
-10.024472 -0.000000 0.000000
-10.024472 -0.000000 0.000000
-10.024472 0.000000 0.000000
-10.024472 -0.000000 0.000000
-10.024472 -0.000000 0.000000
-10.024472 0.000000 0.000000
-10.024478 0.000027 0.000000
-9.883692 -0.279257 0.000000
-9.999676 -0.251107 0.000000
-10.071709 -0.509434 0.000000
-3.933278 8.258511 0.000000
-10.004042 -0.004813 0.000000
-11.491374 -1.081927 0.000000
0.878901 -8.109148 0.000000
-4.906117 8.619287 0.000000
-3.214407 -0.556757 0.000000
10.023772 -0.000098 0.000000
10.024335 -0.000008 0.000000
10.024341 0.000000 0.000000
10.024341 0.000000 0.000000
10.024341 0.000000 0.000000
10.024341 -0.000000 0.000000
10.024341 -0.000000 0.000000
10.024341 0.000000 0.000000
10.024341 -0.000000 0.000000
10.024341 -0.000000 0.000000
10.024341 -0.000000 0.000000
10.024341 0.000000 0.000000
10.024341 -0.000000 0.000000
10.024341 -0.000000 0.000000
10.024341 -0.000000 0.000000
10.024335 0.000008 0.000000
10.023771 0.000087 0.000000
-3.128888 0.672680 0.000000
-4.897534 -8.623400 0.000000
0.881091 8.110462 0.000000
-11.491377 1.081930 0.000000
-10.022739 -0.008890 0.000000
5.994489 -5.446713 0.000000
1.539676 13.126953 0.000000
-0.476485 0.125574 0.000000
-10.024708 -0.000088 0.000000
-10.024676 -0.000002 0.000000
-10.024674 0.000000 0.000000
-10.024674 0.000000 0.000000
-10.024674 0.000000 0.000000
-10.024674 -0.000000 0.000000
-10.024674 -0.000000 0.000000
-10.024674 0.000000 0.000000
-10.024674 -0.000000 0.000000
-10.024674 -0.000000 0.000000
-10.024674 -0.000000 0.000000
-10.024674 0.000000 0.000000
-10.024674 -0.000000 0.000000
-10.024674 -0.000000 0.000000
-10.024674 -0.000000 0.000000
-10.024676 0.000002 0.000000
-10.024708 0.000090 0.000000
-0.474382 -0.136355 0.000000
1.449554 -13.192920 0.000000
5.995791 5.447296 0.000000
-10.022739 0.008890 0.000000
-10.000091 0.006995 0.000000