# vtk DataFile Version 4.0
hesp visualization file
ASCII
DATASET UNSTRUCTURED_GRID
POINTS 1250 double
33.371951 4.104289 4.000000
30.750667 1.506671 4.000000
35.051964 4.722484 4.000000
33.211407 4.634276 4.000000
32.320921 6.642611 4.000000
30.177523 9.023264 4.000000
31.156925 9.748436 4.000000
30.587327 9.189555 4.000000
30.495845 10.087466 4.000000
30.498482 11.224605 4.000000
30.498487 12.347083 4.000000
30.498487 13.469545 4.000000
30.498487 14.592007 4.000000
30.498487 15.714469 4.000000
30.498487 16.836931 4.000000
30.498481 17.959409 4.000000
30.496081 19.096482 4.000000
30.426104 19.843069 4.000000
31.405201 19.873034 4.000000
30.231290 20.227934 4.000000
32.450252 24.115705 4.000000
31.056477 25.870314 4.000000
33.499752 24.497553 4.000000
30.818736 27.807578 4.000000
33.258281 26.042079 4.000000
30.134964 -7.820510 4.000000
33.975964 1.874480 4.000000
31.020307 -0.669621 4.000000
30.763158 5.261498 4.000000
30.559020 6.023297 4.000000
30.787666 7.177566 4.000000
30.153514 7.489497 4.000000
31.352662 9.934476 4.000000
31.596022 11.015774 4.000000
30.827629 11.223858 4.000000
30.827335 12.347080 4.000000
30.827334 13.469545 4.000000
30.827334 14.592007 4.000000
30.827334 15.714469 4.000000
30.827335 16.836933 4.000000
30.827567 17.960102 4.000000
31.837570 18.487655 4.000000
30.900006 19.022700 4.000000
31.649847 20.409926 4.000000
30.706529 22.903240 4.000000
30.572652 23.260804 4.000000
31.961561 24.367841 4.000000
31.024413 29.850402 4.000000
33.978156 27.304593 4.000000
30.134964 37.004523 4.000000
31.827324 -0.275979 4.000000
31.845341 4.102253 4.000000
31.785623 4.753522 4.000000
33.203705 5.939235 4.000000
31.927691 5.513351 4.000000
31.201276 9.185627 4.000000
32.020388 11.029739 4.000000
31.887614 7.587151 4.000000
32.358257 10.093577 4.000000
31.823942 11.224856 4.000000
31.824059 12.347085 4.000000
31.824059 13.469545 4.000000
31.824059 14.592007 4.000000
31.824059 15.714469 4.000000
31.824059 16.836928 4.000000
31.824339 17.958894 4.000000
32.358257 19.090259 4.000000
31.958593 21.623669 4.000000
32.028845 18.175371 4.000000
30.528300 21.237955 4.000000
31.077383 23.833958 4.000000
34.199655 23.050314 4.000000
32.055481 23.166460 4.000000
33.131041 25.224951 4.000000
31.828164 29.458550 4.000000
31.590676 -1.983542 4.000000
30.923856 -3.835208 4.000000
31.719501 2.816552 4.000000
33.525638 3.619672 4.000000
32.355369 3.751885 4.000000
30.868061 6.531398 4.000000
33.374822 8.867162 4.000000
31.406333 9.614763 4.000000
33.953404 10.402944 4.000000
32.945187 11.223212 4.000000
32.153664 12.347233 4.000000
32.153553 13.469544 4.000000
32.153553 14.592007 4.000000
32.153553 15.714469 4.000000
32.153650 16.836798 4.000000
32.945243 17.960733 4.000000
33.929572 18.789950 4.000000
31.465199 19.498696 4.000000
33.387890 20.330539 4.000000
30.969952 21.192954 4.000000
33.357212 24.878458 4.000000
33.583790 25.228544 4.000000
31.526580 26.360187 4.000000
30.923858 33.019220 4.000000
31.590676 31.167555 4.000000
34.268232 3.009765 4.000000
31.530241 4.141742 4.000000
30.948330 1.056351 4.000000
34.755897 6.218315 4.000000
31.385071 7.819827 4.000000
31.132778 7.315004 4.000000
32.185530 7.533771 4.000000
32.458549 8.743464 4.000000
31.867076 9.466937 4.000000
33.230103 12.050851 4.000000
33.130107 12.353304 4.000000
33.149699 13.469542 4.000000
33.149697 14.592007 4.000000
33.149700 15.714472 4.000000
33.109034 16.849231 4.000000
33.306095 17.256080 4.000000
31.829108 19.675991 4.000000
32.460740 20.443903 4.000000
32.500703 22.106432 4.000000
31.533093 21.544923 4.000000
31.480895 22.391573 4.000000
35.923412 24.177011 4.000000
30.947345 28.116835 4.000000
31.517975 25.042201 4.000000
33.059411 25.561154 4.000000
30.760394 -1.801284 4.000000
32.412160 -2.719176 4.000000
36.077209 6.237388 4.000000
31.077402 6.902568 4.000000
33.836286 7.166984 4.000000
31.982415 6.656811 4.000000
32.736894 8.192498 4.000000
32.792260 9.187679 4.000000
32.960864 10.107450 4.000000
33.350180 12.280954 4.000000
34.017673 12.997736 4.000000
33.480158 13.469519 4.000000
33.480148 14.592007 4.000000
33.480160 15.714505 4.000000
33.901766 16.204813 4.000000
33.338957 16.746324 4.000000
32.961666 19.076659 4.000000
32.781203 20.004809 4.000000
32.725111 20.964070 4.000000
31.340304 21.880055 4.000000
34.078295 21.170005 4.000000
30.978474 21.946760 4.000000
36.599194 24.447727 4.000000
32.412328 31.903236 4.000000
30.760392 30.985298 4.000000
31.540414 2.092368 4.000000
36.454724 3.263770 4.000000
31.238940 1.444461 4.000000
33.739029 4.899201 4.000000
31.285500 7.045990 4.000000
32.663389 6.850034 4.000000
34.662713 7.533094 4.000000
33.684357 8.988178 4.000000
33.801428 9.718947 4.000000
33.684326 11.224595 4.000000
34.533260 12.339679 4.000000
34.475745 13.469523 4.000000
34.475757 14.592007 4.000000
34.475748 15.714485 4.000000
34.619193 16.902534 4.000000
33.684305 17.959411 4.000000
33.787116 19.428832 4.000000
33.684346 20.195857 4.000000
34.178689 22.171156 4.000000
32.733434 21.859809 4.000000
32.259777 22.308974 4.000000
33.403989 23.274354 4.000000
30.281537 26.727984 4.000000
36.428662 25.929941 4.000000
31.651031 26.922535 4.000000
38.035470 -4.914661 4.000000
35.089418 2.600648 4.000000
35.913912 2.027385 4.000000
33.309834 6.708914 4.000000
35.712625 5.412419 4.000000
33.854462 6.803953 4.000000
35.346838 8.863470 4.000000
35.601074 8.974381 4.000000
34.803825 10.105608 4.000000
34.807264 11.224623 4.000000
34.807066 12.347084 4.000000
34.806996 13.469543 4.000000
34.806997 14.592007 4.000000
34.806996 15.714470 4.000000
34.864633 16.823510 4.000000
34.807264 17.959389 4.000000
34.807093 19.078137 4.000000
35.598488 20.210731 4.000000
35.422190 20.416617 4.000000
33.856077 22.367086 4.000000
35.674040 22.900841 4.000000
33.199978 22.712526 4.000000
35.912405 27.155660 4.000000
34.667627 24.659010 4.000000
38.035470 34.098674 4.000000
32.396676 3.006890 4.000000
32.691931 1.765548 4.000000
37.203394 2.056741 4.000000
36.679728 5.299407 4.000000
34.700519 6.969041 4.000000
35.171043 7.167534 4.000000
35.017420 7.917271 4.000000
36.117563 10.528911 4.000000
35.316019 10.208267 4.000000
35.802446 11.224603 4.000000
35.802450 12.347083 4.000000
35.802452 13.469545 4.000000
35.802452 14.592007 4.000000
35.802452 15.714469 4.000000
35.802449 16.836931 4.000000
35.802448 17.959415 4.000000
35.379289 19.040636 4.000000
36.076613 18.573858 4.000000
35.021558 21.230871 4.000000
35.173883 21.989852 4.000000
34.714696 22.182340 4.000000
36.930544 24.055551 4.000000
37.245637 27.153766 4.000000
32.692029 27.417921 4.000000
33.023307 26.874989 4.000000
32.138184 0.948713 4.000000
34.436971 -2.058639 4.000000
35.633826 2.631653 4.000000
36.101601 4.506858 4.000000
36.090378 7.930667 4.000000
36.238543 6.665918 4.000000
36.866576 7.713426 4.000000
35.981389 9.893256 4.000000
36.133412 10.102847 4.000000
36.133938 11.224610 4.000000
36.133941 12.347082 4.000000
36.133941 13.469545 4.000000
36.133941 14.592007 4.000000
36.133941 15.714469 4.000000
36.133941 16.836931 4.000000
36.133936 17.959407 4.000000
36.133100 19.082375 4.000000
35.936596 19.317181 4.000000
36.780718 21.361254 4.000000
36.676965 22.456506 4.000000
36.107180 21.244621 4.000000
35.941011 24.829903 4.000000
35.637059 26.551118 4.000000
34.436972 31.242651 4.000000
32.127165 28.209381 4.000000
31.126091 0.439343 4.000000
35.211453 1.892153 4.000000
36.389526 4.499764 4.000000
35.084368 3.211681 4.000000
37.887866 5.370966 4.000000
36.722043 7.489754 4.000000
36.408091 8.773555 4.000000
36.298842 9.366066 4.000000
37.129573 10.102370 4.000000
37.129748 11.224620 4.000000
37.129749 12.347083 4.000000
37.129749 13.469545 4.000000
37.129749 14.592007 4.000000
37.129749 15.714469 4.000000
37.129749 16.836931 4.000000
37.129748 17.959393 4.000000
37.129569 19.081639 4.000000
36.269915 19.811467 4.000000
36.459578 20.398747 4.000000
36.975686 21.717917 4.000000
38.199412 24.129255 4.000000
34.858146 25.884086 4.000000
36.617287 24.069583 4.000000
35.202824 27.290744 4.000000
31.134084 28.779798 4.000000
33.129084 0.187549 4.000000
36.050077 0.537919 4.000000
37.127293 7.825827 4.000000
35.825547 3.683538 4.000000
37.089829 6.211291 4.000000
37.873020 6.056695 4.000000
37.585372 7.482741 4.000000
37.461102 8.979604 4.000000
37.460844 10.102161 4.000000
37.460843 11.224620 4.000000
37.460843 12.347083 4.000000
37.460843 13.469545 4.000000
37.460843 14.592007 4.000000
37.460843 15.714469 4.000000
37.460843 16.836931 4.000000
37.460843 17.959393 4.000000
37.460844 19.081852 4.000000
37.461101 20.204414 4.000000
37.593498 21.711309 4.000000
37.730240 23.243637 4.000000
36.408720 23.318968 4.000000
35.762770 25.541735 4.000000
37.088332 21.376324 4.000000
36.052615 28.655323 4.000000
33.129100 28.996485 4.000000
33.992041 1.133728 4.000000
34.745552 1.366381 4.000000
38.595085 2.741367 4.000000
38.969950 5.521810 4.000000
37.412230 5.979699 4.000000
37.696886 7.012095 4.000000
38.289021 8.094985 4.000000
38.457357 8.979745 4.000000
38.457407 10.102157 4.000000
38.457408 11.224620 4.000000
38.457408 12.347083 4.000000
38.457408 13.469545 4.000000
38.457408 14.592007 4.000000
38.457408 15.714469 4.000000
38.457408 16.836931 4.000000
38.457408 17.959393 4.000000
38.457407 19.081856 4.000000
38.457357 20.204265 4.000000
38.279505 21.083551 4.000000
37.696649 22.173074 4.000000
37.374279 23.065479 4.000000
38.879234 23.649985 4.000000
38.585513 26.425606 4.000000
34.751781 27.826032 4.000000
33.992052 28.050280 4.000000
34.882289 0.346373 4.000000
37.813668 1.748425 4.000000
36.469760 2.645761 4.000000
36.944545 4.408124 4.000000
37.831121 5.776695 4.000000
39.056059 6.231392 4.000000
38.787851 7.857343 4.000000
38.787627 8.979705 4.000000
38.787627 10.102158 4.000000
38.787627 11.224620 4.000000
38.787627 12.347083 4.000000
38.787627 13.469545 4.000000
38.787627 14.592007 4.000000
38.787627 15.714469 4.000000
38.787627 16.836931 4.000000
38.787627 17.959393 4.000000
38.787627 19.081855 4.000000
38.787627 20.204308 4.000000
38.787854 21.326680 4.000000
[...]
POINT_DATA 1250
SCALARS m double
LOOKUP_TABLE default
1.000000
1.000000
1.000000
1.000000
1.000000
1.000000
1.000000
1.000000
1.000000
1.000000
1.000000
1.000000
1.000000
1.000000
1.000000
1.000000
1.000000
1.000000
1.000000
1.000000
1.000000
1.000000
1.000000
1.000000
1.000000
1.000000
1.000000
1.000000
1.000000
1.000000
1.000000
1.000000
1.000000
1.000000
1.000000
1.000000
1.000000
1.000000
1.000000
1.000000
1.000000
1.000000
1.000000
1.000000
1.000000
1.000000
1.000000
1.000000
1.000000
1.000000
1.000000
1.000000
1.000000
1.000000
1.000000
1.000000
1.000000
1.000000
1.000000
1.000000
1.000000
1.000000
1.000000
1.000000
1.000000
1.000000
1.000000
1.000000
1.000000
1.000000
1.000000
1.000000
1.000000
1.000000
1.000000
1.000000
1.000000
1.000000
1.000000
1.000000
1.000000
1.000000
1.000000
1.000000
1.000000
1.000000
1.000000
1.000000
1.000000
1.000000
1.000000
1.000000
1.000000
1.000000
1.000000
1.000000
1.000000
1.000000
1.000000
1.000000
1.000000
1.000000
1.000000
1.000000
1.000000
1.000000
1.000000
1.000000
1.000000
1.000000
1.000000
1.000000
1.000000
1.000000
1.000000
1.000000
1.000000
1.000000
1.000000
1.000000
1.000000
1.000000
1.000000
1.000000
1.000000
1.000000
1.000000
1.000000
1.000000
1.000000
1.000000
1.000000
1.000000
1.000000
1.000000
1.000000
1.000000
1.000000
1.000000
1.000000
1.000000
1.000000
1.000000
1.000000
1.000000
1.000000
1.000000
1.000000
1.000000
1.000000
1.000000
1.000000
1.000000
1.000000
1.000000
1.000000
1.000000
1.000000
1.000000
1.000000
1.000000
1.000000
1.000000
1.000000
1.000000
1.000000
1.000000
1.000000
1.000000
1.000000
1.000000
1.000000
1.000000
1.000000
1.000000
1.000000
1.000000
1.000000
1.000000
1.000000
1.000000
1.000000
1.000000
1.000000
1.000000
1.000000
1.000000
1.000000
1.000000
1.000000
1.000000
1.000000
1.000000
1.000000
1.000000
1.000000
1.000000
1.000000
1.000000
1.000000
1.000000
1.000000
1.000000
1.000000
1.000000
1.000000
1.000000
1.000000
1.000000
1.000000
1.000000
1.000000
1.000000
1.000000
1.000000
1.000000
1.000000
1.000000
1.000000
1.000000
1.000000
1.000000
1.000000
1.000000
1.000000
1.000000
1.000000
1.000000
1.000000
1.000000
1.000000
1.000000
1.000000
1.000000
1.000000
1.000000
1.000000
1.000000
1.000000
1.000000
1.000000
1.000000
1.000000
1.000000
1.000000
1.000000
1.000000
1.000000
1.000000
1.000000
1.000000
1.000000
1.000000
1.000000
1.000000
1.000000
1.000000
1.000000
1.000000
1.000000
1.000000
1.000000
1.000000
1.000000
1.000000
1.000000
1.000000
1.000000
1.000000
1.000000
1.000000
1.000000
1.000000
1.000000
1.000000
1.000000
1.000000
1.000000
1.000000
1.000000
1.000000
1.000000
1.000000
1.000000
1.000000
1.000000
1.000000
1.000000
1.000000
1.000000
1.000000
1.000000
1.000000
1.000000
1.000000
1.000000
1.000000
1.000000
1.000000
1.000000
1.000000
1.000000
1.000000
1.000000
1.000000
1.000000
1.000000
1.000000
1.000000
1.000000
1.000000
1.000000
1.000000
1.000000
1.000000
1.000000
1.000000
1.000000
1.000000
1.000000
1.000000
1.000000
1.000000
1.000000
1.000000
1.000000
1.000000
1.000000
1.000000
1.000000
1.000000
1.000000
1.000000
1.000000
1.000000
1.000000
1.000000
1.000000
1.000000
1.000000
1.000000
1.000000
1.000000
1.000000
1.000000
1.000000
1.000000
1.000000
1.000000
1.000000
1.000000
1.000000
1.000000
1.000000
1.000000
1.000000
1.000000
1.000000
1.000000
1.000000
1.000000
1.000000
1.000000
1.000000
1.000000
1.000000
1.000000
1.000000
1.000000
1.000000
1.000000
1.000000
1.000000
1.000000
1.000000
1.000000
1.000000
1.000000
1.000000
1.000000
1.000000
1.000000
1.000000
1.000000
1.000000
1.000000
1.000000
1.000000
1.000000
1.000000
1.000000
1.000000
1.000000
1.000000
1.000000
1.000000
1.000000
1.000000
1.000000
1.000000
1.000000
1.000000
1.000000
1.000000
1.000000
1.000000
1.000000
1.000000
1.000000
1.000000
1.000000
1.000000
1.000000
1.000000
1.000000
1.000000
1.000000
1.000000
1.000000
1.000000
1.000000
1.000000
1.000000
1.000000
1.000000
1.000000
1.000000
1.000000
1.000000
1.000000
1.000000
1.000000
1.000000
1.000000
1.000000
1.000000
1.000000
1.000000
1.000000
1.000000
1.000000
1.000000
1.000000
1.000000
1.000000
1.000000
1.000000
1.000000
1.000000
1.000000
1.000000
1.000000
1.000000
1.000000
1.000000
1.000000
1.000000
1.000000
1.000000
1.000000
1.000000
1.000000
1.000000
1.000000
1.000000
1.000000
1.000000
1.000000
1.000000
1.000000
1.000000
1.000000
1.000000
1.000000
1.000000
1.000000
1.000000
1.000000
1.000000
1.000000
1.000000
1.000000
1.000000
1.000000
1.000000
1.000000
1.000000
1.000000
1.000000
1.000000
1.000000
1.000000
1.000000
1.000000
1.000000
1.000000
1.000000
1.000000
1.000000
1.000000
1.000000
1.000000
1.000000
1.000000
1.000000
1.000000
1.000000
1.000000
1.000000
1.000000
1.000000
1.000000
1.000000
1.000000
1.000000
1.000000
1.000000
1.000000
1.000000
1.000000
1.000000
1.000000
1.000000
1.000000
1.000000
1.000000
1.000000
1.000000
1.000000
1.000000
1.000000
1.000000
1.000000
1.000000
1.000000
1.000000
1.000000
1.000000
1.000000
1.000000
1.000000
1.000000
1.000000
1.000000
1.000000
1.000000
1.000000
1.000000
1.000000
1.000000
1.000000
1.000000
1.000000
1.000000
1.000000
1.000000
1.000000
1.000000
1.000000
1.000000
1.000000
1.000000
1.000000
1.000000
1.000000
1.000000
1.000000
1.000000
1.000000
1.000000
1.000000
1.000000
1.000000
1.000000
1.000000
1.000000
1.000000
1.000000
1.000000
1.000000
1.000000
1.000000
1.000000
1.000000
1.000000
1.000000
1.000000
1.000000
1.000000
1.000000
1.000000
1.000000
1.000000
1.000000
1.000000
1.000000
1.000000
1.000000
1.000000
1.000000
1.000000
1.000000
1.000000
1.000000
1.000000
1.000000
1.000000
1.000000
1.000000
1.000000
1.000000
1.000000
1.000000
1.000000
1.000000
1.000000
1.000000
1.000000
1.000000
1.000000
1.000000
1.000000
1.000000
1.000000
1.000000
1.000000
1.000000
1.000000
1.000000
1.000000
1.000000
1.000000
1.000000
1.000000
1.000000
1.000000
1.000000
1.000000
1.000000
1.000000
1.000000
1.000000
1.000000
1.000000
1.000000
1.000000
1.000000
1.000000
1.000000
1.000000
1.000000
1.000000
1.000000
1.000000
1.000000
1.000000
1.000000
1.000000
1.000000
1.000000
1.000000
1.000000
1.000000
1.000000
1.000000
1.000000
1.000000
1.000000
1.000000
1.000000
1.000000
1.000000
1.000000
1.000000
1.000000
1.000000
1.000000
1.000000
1.000000
1.000000
1.000000
1.000000
1.000000
1.000000
1.000000
1.000000
1.000000
1.000000
1.000000
1.000000
1.000000
1.000000
1.000000
1.000000
1.000000
1.000000
1.000000
1.000000
1.000000
1.000000
1.000000
1.000000
1.000000
1.000000
1.000000
1.000000
1.000000
1.000000
1.000000
1.000000
1.000000
1.000000
1.000000
1.000000
1.000000
1.000000
1.000000
1.000000
1.000000
1.000000
1.000000
1.000000
1.000000
1.000000
1.000000
1.000000
1.000000
1.000000
1.000000
1.000000
1.000000
1.000000
1.000000
1.000000
1.000000
1.000000
1.000000
1.000000
1.000000
1.000000
1.000000
1.000000
1.000000
1.000000
1.000000
1.000000
1.000000
1.000000
1.000000
1.000000
1.000000
1.000000
1.000000
1.000000
1.000000
1.000000
1.000000
1.000000
1.000000
1.000000
1.000000
1.000000
1.000000
1.000000
1.000000
1.000000
1.000000
1.000000
1.000000
1.000000
1.000000
1.000000
1.000000
1.000000
1.000000
1.000000
1.000000
1.000000
1.000000
1.000000
1.000000
1.000000
1.000000
1.000000
1.000000
1.000000
1.000000
1.000000
1.000000
1.000000
1.000000
1.000000
1.000000
1.000000
1.000000
1.000000
1.000000
1.000000
1.000000
1.000000
1.000000
1.000000
1.000000
1.000000
1.000000
1.000000
1.000000
1.000000
1.000000
1.000000
1.000000
1.000000
1.000000
1.000000
1.000000
1.000000
1.000000
1.000000
1.000000
1.000000
1.000000
1.000000
1.000000
1.000000
1.000000
1.000000
1.000000
1.000000
1.000000
1.000000
1.000000
1.000000
1.000000
1.000000
1.000000
1.000000
1.000000
1.000000
1.000000
1.000000
1.000000
1.000000
1.000000
1.000000
1.000000
1.000000
1.000000
1.000000
1.000000
1.000000
1.000000
1.000000
1.000000
1.000000
1.000000
1.000000
1.000000
1.000000
1.000000
1.000000
1.000000
1.000000
1.000000
1.000000
1.000000
1.000000
1.000000
1.000000
1.000000
1.000000
1.000000
1.000000
1.000000
1.000000
1.000000
1.000000
1.000000
1.000000
1.000000
1.000000
1.000000
1.000000
1.000000
1.000000
1.000000
1.000000
1.000000
1.000000
1.000000
1.000000
1.000000
1.000000
1.000000
1.000000
1.000000
1.000000
1.000000
1.000000
1.000000
1.000000
1.000000
1.000000
1.000000
1.000000
1.000000
1.000000
1.000000
1.000000
1.000000
1.000000
1.000000
1.000000
1.000000
1.000000
1.000000
1.000000
1.000000
1.000000
1.000000
1.000000
1.000000
1.000000
1.000000
1.000000
1.000000
1.000000
1.000000
1.000000
1.000000
1.000000
1.000000
1.000000
1.000000
1.000000
1.000000
1.000000
1.000000
1.000000
1.000000
1.000000
1.000000
1.000000
1.000000
1.000000
1.000000
1.000000
1.000000
1.000000
1.000000
1.000000
1.000000
1.000000
1.000000
1.000000
1.000000
1.000000
1.000000
1.000000
1.000000
1.000000
1.000000
1.000000
1.000000
1.000000
1.000000
1.000000
1.000000
1.000000
1.000000
1.000000
1.000000
1.000000
1.000000
1.000000
1.000000
1.000000
1.000000
1.000000
1.000000
1.000000
1.000000
1.000000
1.000000
1.000000
1.000000
1.000000
1.000000
1.000000
1.000000
1.000000
1.000000
1.000000
1.000000
1.000000
1.000000
1.000000
1.000000
1.000000
1.000000
1.000000
1.000000
1.000000
1.000000
1.000000
1.000000
1.000000
1.000000
1.000000
1.000000
1.000000
1.000000
1.000000
1.000000
1.000000
1.000000
1.000000
1.000000
1.000000
1.000000
1.000000
1.000000
1.000000
1.000000
1.000000
1.000000
1.000000
1.000000
1.000000
1.000000
1.000000
1.000000
1.000000
1.000000
1.000000
1.000000
1.000000
1.000000
1.000000
1.000000
1.000000
1.000000
1.000000
1.000000
1.000000
1.000000
1.000000
1.000000
1.000000
1.000000
1.000000
1.000000
1.000000
1.000000
1.000000
1.000000
1.000000
1.000000
1.000000
1.000000
1.000000
1.000000
1.000000
1.000000
1.000000
1.000000
1.000000
1.000000
1.000000
1.000000
1.000000
1.000000
1.000000
1.000000
1.000000
1.000000
1.000000
1.000000
1.000000
1.000000
1.000000
1.000000
1.000000
1.000000
1.000000
1.000000
1.000000
1.000000
1.000000
1.000000
1.000000
1.000000
1.000000
1.000000
1.000000
1.000000
1.000000
1.000000
1.000000
1.000000
1.000000
1.000000
1.000000
1.000000
1.000000
1.000000
1.000000
1.000000
1.000000
1.000000
1.000000
1.000000
1.000000
1.000000
1.000000
1.000000
1.000000
1.000000
1.000000
1.000000
1.000000
1.000000
1.000000
1.000000
1.000000
1.000000
1.000000
1.000000
1.000000
1.000000
1.000000
1.000000
1.000000
1.000000
1.000000
1.000000
1.000000
1.000000
1.000000
1.000000
1.000000
1.000000
1.000000
1.000000
1.000000
1.000000
1.000000
1.000000
1.000000
1.000000
1.000000
1.000000
1.000000
1.000000
1.000000
1.000000
1.000000
1.000000
1.000000
1.000000
1.000000
1.000000
1.000000
1.000000
1.000000
1.000000
1.000000
1.000000
1.000000
1.000000
1.000000
1.000000
1.000000
1.000000
1.000000
1.000000
1.000000
1.000000
1.000000
1.000000
1.000000
1.000000
1.000000
1.000000
1.000000
1.000000
1.000000
1.000000
1.000000
1.000000
1.000000
1.000000
1.000000
1.000000
1.000000
1.000000
1.000000
1.000000
1.000000
1.000000
1.000000
1.000000
1.000000
1.000000
1.000000
1.000000
1.000000
1.000000
1.000000
1.000000
1.000000
1.000000
1.000000
1.000000
1.000000
1.000000
1.000000
1.000000
1.000000
1.000000
1.000000
1.000000
1.000000
1.000000
1.000000
1.000000
1.000000
1.000000
1.000000
1.000000
1.000000
1.000000
1.000000
1.000000
1.000000
1.000000
1.000000
1.000000
1.000000
1.000000
1.000000
1.000000
1.000000
1.000000
1.000000
1.000000
1.000000
1.000000
1.000000
1.000000
1.000000
VECTORS v double
3.874341 -7.171606 0.000000
6.519279 -8.007368 0.000000
13.922446 3.002431 0.000000
2.860213 14.838361 0.000000
6.366835 6.598762 0.000000
-3.113765 4.843364 0.000000
-2.797030 6.337899 0.000000
5.439057 5.259953 0.000000
9.988191 -0.173964 0.000000
10.049751 -0.000227 0.000000
10.049551 -0.000003 0.000000
10.049550 0.000000 0.000000
10.049550 0.000000 0.000000
10.049550 -0.000000 0.000000
10.049550 0.000000 0.000000
10.049641 0.000261 0.000000
10.025312 0.169954 0.000000
2.577271 -8.925058 0.000000
2.810625 3.375692 0.000000
-1.201835 -2.019757 0.000000
6.769815 5.456690 0.000000
-7.302378 7.946665 0.000000
1.689802 -2.573902 0.000000
6.623260 8.874234 0.000000
-4.948083 10.313916 0.000000
-0.517979 -13.726701 0.000000
-9.465933 3.330047 0.000000
5.429386 -9.790250 0.000000
-7.838517 6.647734 0.000000
-7.595765 -6.373471 0.000000
-4.645660 2.070645 0.000000
-9.783445 -2.180228 0.000000
9.546325 6.828424 0.000000
9.566354 18.372382 0.000000
-10.044319 -0.021729 0.000000
-10.051477 -0.000068 0.000000
-10.051495 -0.000000 0.000000
-10.051495 0.000000 0.000000
-10.051495 0.000000 0.000000
-10.051483 0.000060 0.000000
-10.048051 0.018484 0.000000
14.651661 -12.322671 0.000000
-3.510194 -5.346772 0.000000
10.999984 -13.382691 0.000000
-4.136263 10.284150 0.000000
-7.098839 7.085711 0.000000
0.049439 -2.489454 0.000000
5.440363 9.781679 0.000000
-9.434262 -3.413740 0.000000
-0.517979 13.726701 0.000000
0.186676 -9.213462 0.000000
-2.017847 0.932742 0.000000
1.345944 -6.320780 0.000000
-3.898644 9.555549 0.000000
10.034068 -0.321660 0.000000
3.390826 2.402064 0.000000
-1.223670 6.986811 0.000000
-6.524856 -5.462719 0.000000
-10.005157 -0.316811 0.000000
9.761436 0.225735 0.000000
10.047597 0.000083 0.000000
10.047554 -0.000001 0.000000
10.047551 0.000000 0.000000
10.047555 0.000001 0.000000
10.047588 -0.000106 0.000000
9.988546 -0.031510 0.000000
-10.005969 0.310450 0.000000
4.254989 10.053217 0.000000
-1.395828 -7.010560 0.000000
-5.498672 -6.056194 0.000000
-1.569012 2.541442 0.000000
8.149283 -12.651968 0.000000
8.792339 -5.984467 0.000000
4.520584 1.310425 0.000000
0.192294 9.192357 0.000000
-0.500577 -3.681281 0.000000
6.835107 -10.619247 0.000000
-1.446328 9.347383 0.000000
6.043880 -2.034219 0.000000
2.365493 -10.168356 0.000000
-0.329637 -11.501920 0.000000
9.460092 8.133987 0.000000
-7.861781 4.947730 0.000000
3.606245 4.086757 0.000000
9.994693 -0.018431 0.000000
-10.050271 0.003856 0.000000
-10.052767 -0.000009 0.000000
-10.052787 0.000000 0.000000
-10.052762 0.000009 0.000000
-10.050710 -0.003465 0.000000
9.996696 0.016652 0.000000
3.416517 -3.897458 0.000000
-3.923216 -10.830499 0.000000
9.805650 -7.718286 0.000000
1.421850 -0.037279 0.000000
15.354130 -5.244186 0.000000
4.313139 7.287632 0.000000
-5.906319 -9.270470 0.000000
6.835112 10.619247 0.000000
-0.500578 3.681282 0.000000
0.359771 -7.086281 0.000000
8.282382 4.310238 0.000000
8.753254 -4.834559 0.000000
8.789028 9.311787 0.000000
-6.021990 7.912265 0.000000
-12.148989 5.657183 0.000000
9.156707 1.256290 0.000000
-8.050684 -2.180343 0.000000
-7.020221 -4.633494 0.000000
-4.420279 -0.206620 0.000000
-2.895409 4.581659 0.000000
10.046257 -0.000158 0.000000
10.046100 0.000001 0.000000
10.046365 0.000297 0.000000
-5.883783 5.152396 0.000000
1.379716 -7.826895 0.000000
-7.379869 4.332685 0.000000
-7.949905 2.276707 0.000000
4.316618 4.745957 0.000000
-7.925035 -8.184536 0.000000
-5.868749 0.084626 0.000000
10.963855 -2.457511 0.000000
8.707771 4.625163 0.000000
8.243608 -4.172381 0.000000
-5.272109 7.644569 0.000000
-1.118767 -6.328644 0.000000
-1.995704 -10.926642 0.000000
5.700248 9.606140 0.000000
-0.165048 9.083604 0.000000
-6.755271 -5.096464 0.000000
-3.322918 -8.493124 0.000000
-7.759615 -3.055461 0.000000
-3.207191 6.203719 0.000000
10.177209 0.257843 0.000000
7.178936 6.530494 0.000000
4.661482 17.778387 0.000000
-10.051617 -0.002220 0.000000
-10.052992 0.000001 0.000000
-10.051182 0.003594 0.000000
0.987109 -16.297536 0.000000
5.235348 -10.365011 0.000000
10.182696 -0.252161 0.000000
-3.411407 -6.074435 0.000000
-8.049733 2.403882 0.000000
-13.338423 -4.636526 0.000000
-1.443145 -4.720192 0.000000
-8.493529 -9.712685 0.000000
5.929425 6.540326 0.000000
-1.995265 10.926767 0.000000
-1.118770 6.328651 0.000000
-5.236619 -5.395076 0.000000
1.863677 3.438115 0.000000
-3.751630 -9.007465 0.000000
4.384751 -2.364059 0.000000
-10.694194 8.686183 0.000000
-11.576381 2.310597 0.000000
2.340467 -1.953124 0.000000
-10.047923 0.075583 0.000000
-5.249771 -15.850951 0.000000
-10.009728 -0.000824 0.000000
11.318784 -0.205987 0.000000
10.043920 -0.002387 0.000000
10.045570 -0.000000 0.000000
10.044537 0.001371 0.000000
-7.543645 6.965342 0.000000
-10.010896 -0.000016 0.000000
-5.557300 15.331786 0.000000
-10.044544 -0.074740 0.000000
-4.515782 9.052724 0.000000
-10.384914 -7.182093 0.000000
-4.578012 -3.800927 0.000000
2.540224 -9.878024 0.000000
-8.909146 3.269405 0.000000
1.713811 -3.303503 0.000000
-1.456429 4.602732 0.000000
4.837053 -9.997753 0.000000
2.466766 -15.343904 0.000000
1.721189 -3.447300 0.000000
-3.247206 3.881862 0.000000
-8.709035 1.521608 0.000000
-10.192937 0.570551 0.000000
6.479512 11.455314 0.000000
11.300204 0.656378 0.000000
-10.049056 0.096650 0.000000
-10.004364 -0.000022 0.000000
-9.733863 0.007702 0.000000
-10.052221 -0.000127 0.000000
-10.052045 -0.000000 0.000000
-10.052146 0.000083 0.000000
12.677041 -5.611757 0.000000
-10.004371 -0.000078 0.000000
-9.979719 -0.096569 0.000000
10.618274 -0.684492 0.000000
7.671363 -10.015123 0.000000
-10.055652 -0.659930 0.000000
-6.941651 -11.161991 0.000000
-4.815874 0.023194 0.000000
1.717620 3.443771 0.000000
4.891611 -5.913031 0.000000
4.837053 9.997753 0.000000
-3.054004 -4.483181 0.000000
-9.857845 -1.596911 0.000000
-5.099088 -11.739318 0.000000
-7.385795 -4.838733 0.000000
-7.765326 6.954975 0.000000
-8.279737 5.038143 0.000000
-9.948239 0.848432 0.000000
13.223731 14.044195 0.000000
-4.540086 3.126198 0.000000
10.046298 -0.001263 0.000000
10.045922 0.000007 0.000000
10.045963 -0.000001 0.000000
10.045972 -0.000000 0.000000
10.045962 0.000003 0.000000
10.045845 -0.000004 0.000000
10.046637 0.002121 0.000000
-2.887326 -1.229238 0.000000
11.749661 -16.155206 0.000000
-9.894605 -1.255893 0.000000
-8.150184 -5.356647 0.000000
-7.663088 -7.190632 0.000000
1.467092 6.423184 0.000000
0.146872 12.140242 0.000000
-9.855059 1.585477 0.000000
0.435781 8.124010 0.000000
1.500748 -1.200392 0.000000
-3.933256 -8.257643 0.000000
2.662035 -3.377640 0.000000
-0.845134 -0.249133 0.000000
1.549792 -10.035251 0.000000
-4.772412 6.280680 0.000000
3.073007 1.928386 0.000000
-2.027664 9.498266 0.000000
-9.403872 1.018116 0.000000
-10.050537 -0.001402 0.000000
-10.050282 -0.000003 0.000000
-10.050281 -0.000000 0.000000
-10.050280 -0.000000 0.000000
-10.050281 0.000001 0.000000
-10.050287 0.000004 0.000000
-10.050836 0.002487 0.000000
-10.065184 -0.019617 0.000000
-1.823335 -10.168432 0.000000
-3.804342 -11.502175 0.000000
6.520165 -9.601337 0.000000
1.764178 9.934880 0.000000
-0.137973 1.021073 0.000000
2.709918 3.393487 0.000000
-3.933254 8.257638 0.000000
1.371747 0.816228 0.000000
-11.641880 -4.356485 0.000000
2.770088 5.372783 0.000000
0.191937 -8.057396 0.000000
-2.315433 -1.735921 0.000000
9.084198 1.234557 0.000000
-8.348504 1.871734 0.000000
-8.040899 0.197634 0.000000
-11.619893 15.722652 0.000000
10.043082 0.005407 0.000000
10.046845 -0.000034 0.000000
10.046904 -0.000002 0.000000
10.046904 0.000000 0.000000
10.046904 -0.000000 0.000000
10.046904 -0.000000 0.000000
10.046903 0.000002 0.000000
10.046840 0.000034 0.000000
10.043118 -0.005522 0.000000
-12.715399 -15.466453 0.000000
-6.667391 -0.580773 0.000000
5.038996 4.845338 0.000000
11.325704 1.091387 0.000000
-7.688968 6.509665 0.000000
-5.837010 0.912972 0.000000
2.531326 -5.449057 0.000000
-11.540228 4.795708 0.000000
-7.980490 -7.190644 0.000000
-9.767018 -5.480595 0.000000
8.738922 5.029350 0.000000
-10.805286 0.026599 0.000000
12.767841 -1.443883 0.000000
4.580398 4.146840 0.000000
-6.962869 -7.970504 0.000000
-10.000999 -0.001871 0.000000
-10.048372 0.000127 0.000000
-10.048307 -0.000005 0.000000
-10.048298 -0.000000 0.000000
-10.048298 0.000000 0.000000
-10.048298 -0.000000 0.000000
-10.048298 -0.000000 0.000000
-10.048298 0.000000 0.000000
-10.048307 0.000004 0.000000
-10.048368 -0.000128 0.000000
-10.001056 0.001989 0.000000
-6.759335 8.189156 0.000000
3.880286 9.021612 0.000000
-0.997753 7.476461 0.000000
-11.250954 0.296011 0.000000
3.686893 -2.804221 0.000000
-9.743036 5.558673 0.000000
-7.980360 7.190804 0.000000
-9.999656 0.094057 0.000000
-6.149093 -8.686806 0.000000
3.599351 1.307466 0.000000
-6.184084 4.528244 0.000000