# vtk DataFile Version 4.0
hesp visualization file
ASCII
DATASET UNSTRUCTURED_GRID
POINTS 1250 double
31.010812 1.323132 4.000000
30.117550 2.363529 4.000000
30.113846 3.367349 4.000000
30.113846 4.489848 4.000000
30.113846 5.612310 4.000000
30.113846 6.734772 4.000000
30.113846 7.857234 4.000000
30.113846 8.979696 4.000000
30.113846 10.102158 4.000000
30.113846 11.224620 4.000000
30.113846 12.347083 4.000000
30.113846 13.469545 4.000000
30.113846 14.592007 4.000000
30.113846 15.714469 4.000000
30.113846 16.836931 4.000000
30.113846 17.959393 4.000000
30.113846 19.081855 4.000000
30.113846 20.204317 4.000000
30.113846 21.326779 4.000000
30.113846 22.449241 4.000000
30.113846 23.571703 4.000000
30.113846 24.694165 4.000000
30.113846 25.816664 4.000000
30.117550 26.820484 4.000000
31.010812 27.860881 4.000000
31.569475 0.196546 4.000000
31.173652 2.274127 4.000000
31.212931 3.367439 4.000000
31.212931 4.489848 4.000000
31.212931 5.612310 4.000000
31.212931 6.734772 4.000000
31.212931 7.857234 4.000000
31.212931 8.979696 4.000000
31.212931 10.102158 4.000000
31.212931 11.224620 4.000000
31.212931 12.347083 4.000000
31.212931 13.469545 4.000000
31.212931 14.592007 4.000000
31.212931 15.714469 4.000000
31.212931 16.836931 4.000000
31.212931 17.959393 4.000000
31.212931 19.081855 4.000000
31.212931 20.204317 4.000000
31.212931 21.326779 4.000000
31.212931 22.449241 4.000000
31.212931 23.571703 4.000000
31.212931 24.694165 4.000000
31.212931 25.816575 4.000000
31.173652 26.909886 4.000000
31.569475 28.987468 4.000000
31.122484 1.850058 4.000000
31.454931 2.437973 4.000000
31.440645 3.367322 4.000000
31.440645 4.489848 4.000000
31.440645 5.612310 4.000000
31.440645 6.734772 4.000000
31.440645 7.857234 4.000000
31.440645 8.979696 4.000000
31.440645 10.102158 4.000000
31.440645 11.224620 4.000000
31.440645 12.347083 4.000000
31.440645 13.469545 4.000000
31.440645 14.592007 4.000000
31.440645 15.714469 4.000000
31.440645 16.836931 4.000000
31.440645 17.959393 4.000000
31.440645 19.081855 4.000000
31.440645 20.204317 4.000000
31.440645 21.326779 4.000000
31.440645 22.449241 4.000000
31.440645 23.571703 4.000000
31.440645 24.694165 4.000000
31.440645 25.816691 4.000000
31.454931 26.746040 4.000000
31.122484 27.333955 4.000000
31.955890 0.310791 4.000000
32.524745 2.071827 4.000000
32.539631 3.367435 4.000000
32.539631 4.489848 4.000000
32.539631 5.612310 4.000000
32.539631 6.734772 4.000000
32.539631 7.857234 4.000000
32.539631 8.979696 4.000000
32.539631 10.102158 4.000000
32.539631 11.224620 4.000000
32.539631 12.347083 4.000000
32.539631 13.469545 4.000000
32.539631 14.592007 4.000000
32.539631 15.714469 4.000000
32.539631 16.836931 4.000000
32.539631 17.959393 4.000000
32.539631 19.081855 4.000000
32.539631 20.204317 4.000000
32.539631 21.326779 4.000000
32.539631 22.449241 4.000000
32.539631 23.571703 4.000000
32.539631 24.694165 4.000000
32.539631 25.816578 4.000000
32.524745 27.112186 4.000000
31.955890 28.873222 4.000000
33.336699 1.779200 4.000000
32.752043 2.312932 4.000000
32.767397 3.367366 4.000000
32.767398 4.489848 4.000000
32.767398 5.612310 4.000000
32.767398 6.734772 4.000000
32.767398 7.857234 4.000000
32.767398 8.979696 4.000000
32.767398 10.102158 4.000000
32.767398 11.224620 4.000000
32.767398 12.347083 4.000000
32.767398 13.469545 4.000000
32.767398 14.592007 4.000000
32.767398 15.714469 4.000000
32.767398 16.836931 4.000000
32.767398 17.959393 4.000000
32.767398 19.081855 4.000000
32.767398 20.204317 4.000000
32.767398 21.326779 4.000000
32.767398 22.449241 4.000000
32.767398 23.571703 4.000000
32.767398 24.694165 4.000000
32.767397 25.816647 4.000000
32.752043 26.871081 4.000000
33.336699 27.404813 4.000000
32.956841 1.014234 4.000000
33.869503 2.189662 4.000000
33.866233 3.367397 4.000000
33.866233 4.489848 4.000000
33.866233 5.612310 4.000000
33.866233 6.734772 4.000000
33.866233 7.857234 4.000000
33.866233 8.979696 4.000000
33.866233 10.102158 4.000000
33.866233 11.224620 4.000000
33.866233 12.347083 4.000000
33.866233 13.469545 4.000000
33.866233 14.592007 4.000000
33.866233 15.714469 4.000000
33.866233 16.836931 4.000000
33.866233 17.959393 4.000000
33.866233 19.081855 4.000000
33.866233 20.204317 4.000000
33.866233 21.326779 4.000000
33.866233 22.449241 4.000000
33.866233 23.571703 4.000000
33.866233 24.694165 4.000000
33.866233 25.816616 4.000000
33.869503 26.994351 4.000000
32.956841 28.169779 4.000000
34.122559 1.382548 4.000000
34.087063 2.254630 4.000000
34.094038 3.367384 4.000000
34.094038 4.489848 4.000000
34.094038 5.612310 4.000000
34.094038 6.734772 4.000000
34.094038 7.857234 4.000000
34.094038 8.979696 4.000000
34.094038 10.102158 4.000000
34.094038 11.224620 4.000000
34.094038 12.347083 4.000000
34.094038 13.469545 4.000000
34.094038 14.592007 4.000000
34.094038 15.714469 4.000000
34.094038 16.836931 4.000000
34.094038 17.959393 4.000000
34.094038 19.081855 4.000000
34.094038 20.204317 4.000000
34.094038 21.326779 4.000000
34.094038 22.449241 4.000000
34.094038 23.571703 4.000000
34.094038 24.694165 4.000000
34.094038 25.816629 4.000000
34.087063 26.929383 4.000000
34.122559 27.801466 4.000000
35.159178 0.947081 4.000000
35.192651 2.239831 4.000000
35.192627 3.367387 4.000000
35.192627 4.489848 4.000000
35.192627 5.612310 4.000000
35.192627 6.734772 4.000000
35.192627 7.857234 4.000000
35.192627 8.979696 4.000000
35.192627 10.102158 4.000000
35.192627 11.224620 4.000000
35.192627 12.347083 4.000000
35.192627 13.469545 4.000000
35.192627 14.592007 4.000000
35.192627 15.714469 4.000000
35.192627 16.836931 4.000000
35.192627 17.959393 4.000000
35.192627 19.081855 4.000000
35.192627 20.204317 4.000000
35.192627 21.326779 4.000000
35.192627 22.449241 4.000000
35.192627 23.571703 4.000000
35.192627 24.694165 4.000000
35.192627 25.816626 4.000000
35.192651 26.944182 4.000000
35.159178 28.236933 4.000000
35.401700 1.123309 4.000000
35.420188 2.245285 4.000000
35.420249 3.367386 4.000000
35.420249 4.489848 4.000000
35.420249 5.612310 4.000000
35.420249 6.734772 4.000000
35.420249 7.857234 4.000000
35.420249 8.979696 4.000000
35.420249 10.102158 4.000000
35.420249 11.224620 4.000000
35.420249 12.347083 4.000000
35.420249 13.469545 4.000000
35.420249 14.592007 4.000000
35.420249 15.714469 4.000000
35.420249 16.836931 4.000000
35.420249 17.959393 4.000000
35.420249 19.081855 4.000000
35.420249 20.204317 4.000000
35.420249 21.326779 4.000000
35.420249 22.449241 4.000000
35.420249 23.571703 4.000000
35.420249 24.694165 4.000000
35.420249 25.816627 4.000000
35.420188 26.938728 4.000000
35.401700 28.060704 4.000000
36.524620 1.123437 4.000000
36.524620 2.244930 4.000000
36.524620 3.367386 4.000000
36.524620 4.489848 4.000000
36.524620 5.612310 4.000000
36.524620 6.734772 4.000000
36.524620 7.857234 4.000000
36.524620 8.979696 4.000000
36.524620 10.102158 4.000000
36.524620 11.224620 4.000000
36.524620 12.347083 4.000000
36.524620 13.469545 4.000000
36.524620 14.592007 4.000000
36.524620 15.714469 4.000000
36.524620 16.836931 4.000000
36.524620 17.959393 4.000000
36.524620 19.081855 4.000000
36.524620 20.204317 4.000000
36.524620 21.326779 4.000000
36.524620 22.449241 4.000000
36.524620 23.571703 4.000000
36.524620 24.694165 4.000000
36.524620 25.816627 4.000000
36.524620 26.939083 4.000000
36.524620 28.060576 4.000000
37.647083 1.123437 4.000000
37.647083 2.244930 4.000000
37.647083 3.367386 4.000000
37.647083 4.489848 4.000000
37.647083 5.612310 4.000000
37.647083 6.734772 4.000000
37.647083 7.857234 4.000000
37.647083 8.979696 4.000000
37.647083 10.102158 4.000000
37.647083 11.224620 4.000000
37.647083 12.347083 4.000000
37.647083 13.469545 4.000000
37.647083 14.592007 4.000000
37.647083 15.714469 4.000000
37.647083 16.836931 4.000000
37.647083 17.959393 4.000000
37.647083 19.081855 4.000000
37.647083 20.204317 4.000000
37.647083 21.326779 4.000000
37.647083 22.449241 4.000000
37.647083 23.571703 4.000000
37.647083 24.694165 4.000000
37.647083 25.816627 4.000000
37.647083 26.939083 4.000000
37.647083 28.060576 4.000000
38.769545 1.123437 4.000000
38.769545 2.244930 4.000000
38.769545 3.367386 4.000000
38.769545 4.489848 4.000000
38.769545 5.612310 4.000000
38.769545 6.734772 4.000000
38.769545 7.857234 4.000000
38.769545 8.979696 4.000000
38.769545 10.102158 4.000000
38.769545 11.224620 4.000000
38.769545 12.347083 4.000000
38.769545 13.469545 4.000000
38.769545 14.592007 4.000000
38.769545 15.714469 4.000000
38.769545 16.836931 4.000000
38.769545 17.959393 4.000000
38.769545 19.081855 4.000000
38.769545 20.204317 4.000000
38.769545 21.326779 4.000000
38.769545 22.449241 4.000000
38.769545 23.571703 4.000000
38.769545 24.694165 4.000000
38.769545 25.816627 4.000000
38.769545 26.939083 4.000000
38.769545 28.060576 4.000000
39.892007 1.123437 4.000000
39.892007 2.244930 4.000000
39.892007 3.367386 4.000000
39.892007 4.489848 4.000000
39.892007 5.612310 4.000000
39.892007 6.734772 4.000000
39.892007 7.857234 4.000000
39.892007 8.979696 4.000000
39.892007 10.102158 4.000000
39.892007 11.224620 4.000000
39.892007 12.347083 4.000000
39.892007 13.469545 4.000000
39.892007 14.592007 4.000000
39.892007 15.714469 4.000000
39.892007 16.836931 4.000000
39.892007 17.959393 4.000000
39.892007 19.081855 4.000000
39.892007 20.204317 4.000000
39.892007 21.326779 4.000000
39.892007 22.449241 4.000000
39.892007 23.571703 4.000000
39.892007 24.694165 4.000000
39.892007 25.816627 4.000000
39.892007 26.939083 4.000000
39.892007 28.060576 4.000000
41.014469 1.123437 4.000000
41.014469 2.244930 4.000000
41.014469 3.367386 4.000000
41.014469 4.489848 4.000000
41.014469 5.612310 4.000000
41.014469 6.734772 4.000000
41.014469 7.857234 4.000000
41.014469 8.979696 4.000000
41.014469 10.102158 4.000000
41.014469 11.224620 4.000000
41.014469 12.347083 4.000000
41.014469 13.469545 4.000000
41.014469 14.592007 4.000000
41.014469 15.714469 4.000000
41.014469 16.836931 4.000000
41.014469 17.959393 4.000000
41.014469 19.081855 4.000000
41.014469 20.204317 4.000000
41.014469 21.326779 4.000000
41.014469 22.449241 4.000000
[...]
POINT_DATA 1250
SCALARS m double
LOOKUP_TABLE default
1.000000
1.000000
1.000000
1.000000
1.000000
1.000000
1.000000
1.000000
1.000000
1.000000
1.000000
1.000000
1.000000
1.000000
1.000000
1.000000
1.000000
1.000000
1.000000
1.000000
1.000000
1.000000
1.000000
1.000000
1.000000
1.000000
1.000000
1.000000
1.000000
1.000000
1.000000
1.000000
1.000000
1.000000
1.000000
1.000000
1.000000
1.000000
1.000000
1.000000
1.000000
1.000000
1.000000
1.000000
1.000000
1.000000
1.000000
1.000000
1.000000
1.000000
1.000000
1.000000
1.000000
1.000000
1.000000
1.000000
1.000000
1.000000
1.000000
1.000000
1.000000
1.000000
1.000000
1.000000
1.000000
1.000000
1.000000
1.000000
1.000000
1.000000
1.000000
1.000000
1.000000
1.000000
1.000000
1.000000
1.000000
1.000000
1.000000
1.000000
1.000000
1.000000
1.000000
1.000000
1.000000
1.000000
1.000000
1.000000
1.000000
1.000000
1.000000
1.000000
1.000000
1.000000
1.000000
1.000000
1.000000
1.000000
1.000000
1.000000
1.000000
1.000000
1.000000
1.000000
1.000000
1.000000
1.000000
1.000000
1.000000
1.000000
1.000000
1.000000
1.000000
1.000000
1.000000
1.000000
1.000000
1.000000
1.000000
1.000000
1.000000
1.000000
1.000000
1.000000
1.000000
1.000000
1.000000
1.000000
1.000000
1.000000
1.000000
1.000000
1.000000
1.000000
1.000000
1.000000
1.000000
1.000000
1.000000
1.000000
1.000000
1.000000
1.000000
1.000000
1.000000
1.000000
1.000000
1.000000
1.000000
1.000000
1.000000
1.000000
1.000000
1.000000
1.000000
1.000000
1.000000
1.000000
1.000000
1.000000
1.000000
1.000000
1.000000
1.000000
1.000000
1.000000
1.000000
1.000000
1.000000
1.000000
1.000000
1.000000
1.000000
1.000000
1.000000
1.000000
1.000000
1.000000
1.000000
1.000000
1.000000
1.000000
1.000000
1.000000
1.000000
1.000000
1.000000
1.000000
1.000000
1.000000
1.000000
1.000000
1.000000
1.000000
1.000000
1.000000
1.000000
1.000000
1.000000
1.000000
1.000000
1.000000
1.000000
1.000000
1.000000
1.000000
1.000000
1.000000
1.000000
1.000000
1.000000
1.000000
1.000000
1.000000
1.000000
1.000000
1.000000
1.000000
1.000000
1.000000
1.000000
1.000000
1.000000
1.000000
1.000000
1.000000
1.000000
1.000000
1.000000
1.000000
1.000000
1.000000
1.000000
1.000000
1.000000
1.000000
1.000000
1.000000
1.000000
1.000000
1.000000
1.000000
1.000000
1.000000
1.000000
1.000000
1.000000
1.000000
1.000000
1.000000
1.000000
1.000000
1.000000
1.000000
1.000000
1.000000
1.000000
1.000000
1.000000
1.000000
1.000000
1.000000
1.000000
1.000000
1.000000
1.000000
1.000000
1.000000
1.000000
1.000000
1.000000
1.000000
1.000000
1.000000
1.000000
1.000000
1.000000
1.000000
1.000000
1.000000
1.000000
1.000000
1.000000
1.000000
1.000000
1.000000
1.000000
1.000000
1.000000
1.000000
1.000000
1.000000
1.000000
1.000000
1.000000
1.000000
1.000000
1.000000
1.000000
1.000000
1.000000
1.000000
1.000000
1.000000
1.000000
1.000000
1.000000
1.000000
1.000000
1.000000
1.000000
1.000000
1.000000
1.000000
1.000000
1.000000
1.000000
1.000000
1.000000
1.000000
1.000000
1.000000
1.000000
1.000000
1.000000
1.000000
1.000000
1.000000
1.000000
1.000000
1.000000
1.000000
1.000000
1.000000
1.000000
1.000000
1.000000
1.000000
1.000000
1.000000
1.000000
1.000000
1.000000
1.000000
1.000000
1.000000
1.000000
1.000000
1.000000
1.000000
1.000000
1.000000
1.000000
1.000000
1.000000
1.000000
1.000000
1.000000
1.000000
1.000000
1.000000
1.000000
1.000000
1.000000
1.000000
1.000000
1.000000
1.000000
1.000000
1.000000
1.000000
1.000000
1.000000
1.000000
1.000000
1.000000
1.000000
1.000000
1.000000
1.000000
1.000000
1.000000
1.000000
1.000000
1.000000
1.000000
1.000000
1.000000
1.000000
1.000000
1.000000
1.000000
1.000000
1.000000
1.000000
1.000000
1.000000
1.000000
1.000000
1.000000
1.000000
1.000000
1.000000
1.000000
1.000000
1.000000
1.000000
1.000000
1.000000
1.000000
1.000000
1.000000
1.000000
1.000000
1.000000
1.000000
1.000000
1.000000
1.000000
1.000000
1.000000
1.000000
1.000000
1.000000
1.000000
1.000000
1.000000
1.000000
1.000000
1.000000
1.000000
1.000000
1.000000
1.000000
1.000000
1.000000
1.000000
1.000000
1.000000
1.000000
1.000000
1.000000
1.000000
1.000000
1.000000
1.000000
1.000000
1.000000
1.000000
1.000000
1.000000
1.000000
1.000000
1.000000
1.000000
1.000000
1.000000
1.000000
1.000000
1.000000
1.000000
1.000000
1.000000
1.000000
1.000000
1.000000
1.000000
1.000000
1.000000
1.000000
1.000000
1.000000
1.000000
1.000000
1.000000
1.000000
1.000000
1.000000
1.000000
1.000000
1.000000
1.000000
1.000000
1.000000
1.000000
1.000000
1.000000
1.000000
1.000000
1.000000
1.000000
1.000000
1.000000
1.000000
1.000000
1.000000
1.000000
1.000000
1.000000
1.000000
1.000000
1.000000
1.000000
1.000000
1.000000
1.000000
1.000000
1.000000
1.000000
1.000000
1.000000
1.000000
1.000000
1.000000
1.000000
1.000000
1.000000
1.000000
1.000000
1.000000
1.000000
1.000000
1.000000
1.000000
1.000000
1.000000
1.000000
1.000000
1.000000
1.000000
1.000000
1.000000
1.000000
1.000000
1.000000
1.000000
1.000000
1.000000
1.000000
1.000000
1.000000
1.000000
1.000000
1.000000
1.000000
1.000000
1.000000
1.000000
1.000000
1.000000
1.000000
1.000000
1.000000
1.000000
1.000000
1.000000
1.000000
1.000000
1.000000
1.000000
1.000000
1.000000
1.000000
1.000000
1.000000
1.000000
1.000000
1.000000
1.000000
1.000000
1.000000
1.000000
1.000000
1.000000
1.000000
1.000000
1.000000
1.000000
1.000000
1.000000
1.000000
1.000000
1.000000
1.000000
1.000000
1.000000
1.000000
1.000000
1.000000
1.000000
1.000000
1.000000
1.000000
1.000000
1.000000
1.000000
1.000000
1.000000
1.000000
1.000000
1.000000
1.000000
1.000000
1.000000
1.000000
1.000000
1.000000
1.000000
1.000000
1.000000
1.000000
1.000000
1.000000
1.000000
1.000000
1.000000
1.000000
1.000000
1.000000
1.000000
1.000000
1.000000
1.000000
1.000000
1.000000
1.000000
1.000000
1.000000
1.000000
1.000000
1.000000
1.000000
1.000000
1.000000
1.000000
1.000000
1.000000
1.000000
1.000000
1.000000
1.000000
1.000000
1.000000
1.000000
1.000000
1.000000
1.000000
1.000000
1.000000
1.000000
1.000000
1.000000
1.000000
1.000000
1.000000
1.000000
1.000000
1.000000
1.000000
1.000000
1.000000
1.000000
1.000000
1.000000
1.000000
1.000000
1.000000
1.000000
1.000000
1.000000
1.000000
1.000000
1.000000
1.000000
1.000000
1.000000
1.000000
1.000000
1.000000
1.000000
1.000000
1.000000
1.000000
1.000000
1.000000
1.000000
1.000000
1.000000
1.000000
1.000000
1.000000
1.000000
1.000000
1.000000
1.000000
1.000000
1.000000
1.000000
1.000000
1.000000
1.000000
1.000000
1.000000
1.000000
1.000000
1.000000
1.000000
1.000000
1.000000
1.000000
1.000000
1.000000
1.000000
1.000000
1.000000
1.000000
1.000000
1.000000
1.000000
1.000000
1.000000
1.000000
1.000000
1.000000
1.000000
1.000000
1.000000
1.000000
1.000000
1.000000
1.000000
1.000000
1.000000
1.000000
1.000000
1.000000
1.000000
1.000000
1.000000
1.000000
1.000000
1.000000
1.000000
1.000000
1.000000
1.000000
1.000000
1.000000
1.000000
1.000000
1.000000
1.000000
1.000000
1.000000
1.000000
1.000000
1.000000
1.000000
1.000000
1.000000
1.000000
1.000000
1.000000
1.000000
1.000000
1.000000
1.000000
1.000000
1.000000
1.000000
1.000000
1.000000
1.000000
1.000000
1.000000
1.000000
1.000000
1.000000
1.000000
1.000000
1.000000
1.000000
1.000000
1.000000
1.000000
1.000000
1.000000
1.000000
1.000000
1.000000
1.000000
1.000000
1.000000
1.000000
1.000000
1.000000
1.000000
1.000000
1.000000
1.000000
1.000000
1.000000
1.000000
1.000000
1.000000
1.000000
1.000000
1.000000
1.000000
1.000000
1.000000
1.000000
1.000000
1.000000
1.000000
1.000000
1.000000
1.000000
1.000000
1.000000
1.000000
1.000000
1.000000
1.000000
1.000000
1.000000
1.000000
1.000000
1.000000
1.000000
1.000000
1.000000
1.000000
1.000000
1.000000
1.000000
1.000000
1.000000
1.000000
1.000000
1.000000
1.000000
1.000000
1.000000
1.000000
1.000000
1.000000
1.000000
1.000000
1.000000
1.000000
1.000000
1.000000
1.000000
1.000000
1.000000
1.000000
1.000000
1.000000
1.000000
1.000000
1.000000
1.000000
1.000000
1.000000
1.000000
1.000000
1.000000
1.000000
1.000000
1.000000
1.000000
1.000000
1.000000
1.000000
1.000000
1.000000
1.000000
1.000000
1.000000
1.000000
1.000000
1.000000
1.000000
1.000000
1.000000
1.000000
1.000000
1.000000
1.000000
1.000000
1.000000
1.000000
1.000000
1.000000
1.000000
1.000000
1.000000
1.000000
1.000000
1.000000
1.000000
1.000000
1.000000
1.000000
1.000000
1.000000
1.000000
1.000000
1.000000
1.000000
1.000000
1.000000
1.000000
1.000000
1.000000
1.000000
1.000000
1.000000
1.000000
1.000000
1.000000
1.000000
1.000000
1.000000
1.000000
1.000000
1.000000
1.000000
1.000000
1.000000
1.000000
1.000000
1.000000
1.000000
1.000000
1.000000
1.000000
1.000000
1.000000
1.000000
1.000000
1.000000
1.000000
1.000000
1.000000
1.000000
1.000000
1.000000
1.000000
1.000000
1.000000
1.000000
1.000000
1.000000
1.000000
1.000000
1.000000
1.000000
1.000000
1.000000
1.000000
1.000000
1.000000
1.000000
1.000000
1.000000
1.000000
1.000000
1.000000
1.000000
1.000000
1.000000
1.000000
1.000000
1.000000
1.000000
1.000000
1.000000
1.000000
1.000000
1.000000
1.000000
1.000000
1.000000
1.000000
1.000000
1.000000
1.000000
1.000000
1.000000
1.000000
1.000000
1.000000
1.000000
1.000000
1.000000
1.000000
1.000000
1.000000
1.000000
1.000000
1.000000
1.000000
1.000000
1.000000
1.000000
1.000000
1.000000
1.000000
1.000000
1.000000
1.000000
1.000000
1.000000
1.000000
1.000000
1.000000
1.000000
1.000000
1.000000
1.000000
1.000000
1.000000
1.000000
1.000000
1.000000
1.000000
1.000000
1.000000
1.000000
1.000000
1.000000
1.000000
1.000000
1.000000
1.000000
1.000000
1.000000
1.000000
1.000000
1.000000
1.000000
1.000000
1.000000
1.000000
1.000000
1.000000
1.000000
1.000000
1.000000
1.000000
1.000000
1.000000
1.000000
1.000000
1.000000
1.000000
1.000000
1.000000
1.000000
1.000000
1.000000
1.000000
1.000000
1.000000
1.000000
1.000000
1.000000
1.000000
1.000000
1.000000
1.000000
1.000000
1.000000
1.000000
1.000000
1.000000
1.000000
1.000000
1.000000
1.000000
1.000000
1.000000
1.000000
1.000000
1.000000
1.000000
1.000000
1.000000
1.000000
1.000000
1.000000
1.000000
1.000000
1.000000
1.000000
1.000000
1.000000
1.000000
1.000000
1.000000
1.000000
1.000000
1.000000
1.000000
1.000000
1.000000
1.000000
1.000000
1.000000
1.000000
1.000000
1.000000
1.000000
1.000000
1.000000
1.000000
1.000000
1.000000
1.000000
1.000000
1.000000
1.000000
1.000000
1.000000
1.000000
1.000000
1.000000
1.000000
1.000000
1.000000
1.000000
1.000000
1.000000
1.000000
1.000000
1.000000
1.000000
1.000000
1.000000
1.000000
1.000000
1.000000
1.000000
1.000000
1.000000
1.000000
1.000000
1.000000
1.000000
1.000000
1.000000
1.000000
1.000000
1.000000
1.000000
1.000000
1.000000
1.000000
1.000000
1.000000
1.000000
1.000000
1.000000
1.000000
1.000000
1.000000
1.000000
1.000000
1.000000
1.000000
1.000000
1.000000
1.000000
1.000000
1.000000
1.000000
1.000000
1.000000
1.000000
1.000000
1.000000
1.000000
1.000000
1.000000
1.000000
1.000000
1.000000
1.000000
1.000000
1.000000
1.000000
1.000000
1.000000
1.000000
1.000000
1.000000
1.000000
1.000000
1.000000
1.000000
1.000000
1.000000
1.000000
1.000000
1.000000
1.000000
1.000000
1.000000
1.000000
1.000000
1.000000
1.000000
1.000000
1.000000
1.000000
1.000000
1.000000
1.000000
1.000000
1.000000
1.000000
1.000000
1.000000
1.000000
1.000000
1.000000
1.000000
1.000000
1.000000
1.000000
1.000000
1.000000
1.000000
1.000000
1.000000
1.000000
1.000000
1.000000
1.000000
1.000000
1.000000
1.000000
1.000000
1.000000
1.000000
1.000000
1.000000
1.000000
VECTORS v double
9.893855 1.445441 0.000000
-5.814707 2.490016 0.000000
3.504584 -0.000962 0.000000
3.504413 -0.000002 0.000000
3.504411 0.000000 0.000000
3.504411 0.000000 0.000000
3.504411 -0.000000 0.000000
3.504411 -0.000000 0.000000
3.504411 0.000000 0.000000
3.504411 -0.000000 0.000000
3.504411 -0.000000 0.000000
3.504411 0.000000 0.000000
3.504411 -0.000000 0.000000
3.504411 -0.000000 0.000000
3.504411 -0.000000 0.000000
3.504411 0.000000 0.000000
3.504411 -0.000000 0.000000
3.504411 -0.000000 0.000000
3.504411 0.000000 0.000000
3.504411 -0.000000 0.000000
3.504411 -0.000000 0.000000
3.504413 0.000002 0.000000
3.504584 0.000962 0.000000
-5.814705 -2.490016 0.000000
9.893855 -1.445441 0.000000
3.608588 -9.395481 0.000000
6.755077 11.468702 0.000000
-3.517795 0.006797 0.000000
-3.517720 0.000007 0.000000
-3.517720 -0.000000 0.000000
-3.517720 0.000000 0.000000
-3.517720 -0.000000 0.000000
-3.517720 -0.000000 0.000000
-3.517720 0.000000 0.000000
-3.517720 -0.000000 0.000000
-3.517720 0.000000 0.000000
-3.517720 0.000000 0.000000
-3.517720 -0.000000 0.000000
-3.517720 -0.000000 0.000000
-3.517720 -0.000000 0.000000
-3.517720 0.000000 0.000000
-3.517720 -0.000000 0.000000
-3.517720 -0.000000 0.000000
-3.517720 0.000000 0.000000
-3.517720 -0.000000 0.000000
-3.517720 0.000000 0.000000
-3.517720 -0.000009 0.000000
-3.517795 -0.006802 0.000000
6.755078 -11.468701 0.000000
3.608588 9.395481 0.000000
-0.638919 -5.030055 0.000000
-9.390265 3.664479 0.000000
3.520104 -0.007428 0.000000
3.519981 -0.000009 0.000000
3.519981 0.000000 0.000000
3.519981 -0.000000 0.000000
3.519981 -0.000000 0.000000
3.519981 -0.000000 0.000000
3.519981 0.000000 0.000000
3.519981 -0.000000 0.000000
3.519981 0.000000 0.000000
3.519981 0.000000 0.000000
3.519981 -0.000000 0.000000
3.519981 -0.000000 0.000000
3.519981 -0.000000 0.000000
3.519981 0.000000 0.000000
3.519981 -0.000000 0.000000
3.519981 -0.000000 0.000000
3.519981 0.000000 0.000000
3.519981 0.000000 0.000000
3.519981 -0.000000 0.000000
3.519981 0.000010 0.000000
3.520104 0.007433 0.000000
-9.390265 -3.664478 0.000000
-0.638920 5.030054 0.000000
-6.584089 -8.162828 0.000000
9.393857 -3.447855 0.000000
-3.549895 0.004519 0.000000
-3.550071 0.000006 0.000000
-3.550071 0.000000 0.000000
-3.550071 -0.000000 0.000000
-3.550071 -0.000000 0.000000
-3.550071 -0.000000 0.000000
-3.550071 0.000000 0.000000
-3.550071 -0.000000 0.000000
-3.550071 0.000000 0.000000
-3.550071 0.000000 0.000000
-3.550071 -0.000000 0.000000
-3.550071 -0.000000 0.000000
-3.550071 -0.000000 0.000000
-3.550071 0.000000 0.000000
-3.550071 -0.000000 0.000000
-3.550071 -0.000000 0.000000
-3.550071 0.000000 0.000000
-3.550071 0.000000 0.000000
-3.550071 -0.000000 0.000000
-3.550071 -0.000007 0.000000
-3.549895 -0.004523 0.000000
9.393857 3.447854 0.000000
-6.584089 8.162828 0.000000
6.447899 7.010217 0.000000
-9.987574 1.226850 0.000000
3.553750 -0.003908 0.000000
3.553936 -0.000005 0.000000
3.553936 -0.000000 0.000000
3.553936 -0.000000 0.000000
3.553936 -0.000000 0.000000
3.553936 -0.000000 0.000000
3.553936 0.000000 0.000000
3.553936 -0.000000 0.000000
3.553936 0.000000 0.000000
3.553936 0.000000 0.000000
3.553936 -0.000000 0.000000
3.553936 -0.000000 0.000000
3.553936 -0.000000 0.000000
3.553936 0.000000 0.000000
3.553936 -0.000000 0.000000
3.553936 -0.000000 0.000000
3.553936 0.000000 0.000000
3.553936 0.000000 0.000000
3.553936 0.000000 0.000000
3.553936 0.000006 0.000000
3.553750 0.003911 0.000000
-9.987574 -1.226850 0.000000
6.447899 -7.010217 0.000000
-9.971363 -1.052992 0.000000
0.132379 -3.702126 0.000000
-3.574171 0.000928 0.000000
-3.574228 0.000001 0.000000
-3.574228 0.000000 0.000000
-3.574228 -0.000000 0.000000
-3.574228 -0.000000 0.000000
-3.574228 -0.000000 0.000000
-3.574228 0.000000 0.000000
-3.574228 -0.000000 0.000000
-3.574228 -0.000000 0.000000
-3.574228 0.000000 0.000000
-3.574228 -0.000000 0.000000
-3.574228 -0.000000 0.000000
-3.574228 -0.000000 0.000000
-3.574228 0.000000 0.000000
-3.574228 -0.000000 0.000000
-3.574228 -0.000000 0.000000
-3.574228 0.000000 0.000000
-3.574228 0.000000 0.000000
-3.574228 -0.000000 0.000000
-3.574228 -0.000001 0.000000
-3.574171 -0.000928 0.000000
0.132378 3.702126 0.000000
-9.971363 1.052992 0.000000
-9.049204 4.730236 0.000000
-0.203113 2.726760 0.000000
3.578540 -0.000698 0.000000
3.578602 -0.000000 0.000000
3.578602 -0.000000 0.000000
3.578602 -0.000000 0.000000
3.578602 -0.000000 0.000000
3.578602 -0.000000 0.000000
3.578602 0.000000 0.000000
3.578602 -0.000000 0.000000
3.578602 -0.000000 0.000000
3.578602 0.000000 0.000000
3.578602 -0.000000 0.000000
3.578602 -0.000000 0.000000
3.578602 -0.000000 0.000000
3.578602 0.000000 0.000000
3.578602 -0.000000 0.000000
3.578602 -0.000000 0.000000
3.578602 0.000000 0.000000
3.578602 0.000000 0.000000
3.578602 0.000000 0.000000
3.578602 0.000000 0.000000
3.578540 0.000699 0.000000
-0.203112 -2.726760 0.000000
-9.049204 -4.730236 0.000000
8.990359 -3.849483 0.000000
-3.429763 -0.384926 0.000000
-3.457540 0.000058 0.000000
-3.457550 -0.000000 0.000000
-3.457549 0.000000 0.000000
-3.457549 -0.000000 0.000000
-3.457549 -0.000000 0.000000
-3.457549 -0.000000 0.000000
-3.457549 0.000000 0.000000
-3.457549 -0.000000 0.000000
-3.457549 -0.000000 0.000000
-3.457549 0.000000 0.000000
-3.457549 -0.000000 0.000000
-3.457549 -0.000000 0.000000
-3.457549 -0.000000 0.000000
-3.457549 0.000000 0.000000
-3.457549 -0.000000 0.000000
-3.457549 -0.000000 0.000000
-3.457549 0.000000 0.000000
-3.457549 0.000000 0.000000
-3.457549 -0.000000 0.000000
-3.457550 0.000000 0.000000
-3.457540 -0.000058 0.000000
-3.429763 0.384926 0.000000
8.990359 3.849483 0.000000
-9.990358 0.028680 0.000000
3.431607 0.282774 0.000000
3.460103 -0.000038 0.000000
3.460113 0.000000 0.000000
3.460113 -0.000000 0.000000
3.460113 -0.000000 0.000000
3.460113 -0.000000 0.000000
3.460113 -0.000000 0.000000
3.460113 0.000000 0.000000
3.460113 -0.000000 0.000000
3.460113 -0.000000 0.000000
3.460113 0.000000 0.000000
3.460113 -0.000000 0.000000
3.460113 -0.000000 0.000000
3.460113 -0.000000 0.000000
3.460113 0.000000 0.000000
3.460113 -0.000000 0.000000
3.460113 -0.000000 0.000000
3.460113 0.000000 0.000000
3.460113 0.000000 0.000000
3.460113 0.000000 0.000000
3.460113 -0.000000 0.000000
3.460103 0.000038 0.000000
3.431607 -0.282774 0.000000
-9.990358 -0.028680 0.000000
-10.000025 0.004156 0.000000
-10.000035 0.000022 0.000000
-10.000036 -0.000000 0.000000
-10.000036 -0.000000 0.000000
-10.000036 0.000000 0.000000
-10.000036 0.000000 0.000000
-10.000036 -0.000000 0.000000
-10.000036 -0.000000 0.000000
-10.000036 0.000000 0.000000
-10.000036 -0.000000 0.000000
-10.000036 -0.000000 0.000000
-10.000036 0.000000 0.000000
-10.000036 -0.000000 0.000000
-10.000036 -0.000000 0.000000
-10.000036 -0.000000 0.000000
-10.000036 0.000000 0.000000
-10.000036 -0.000000 0.000000
-10.000036 -0.000000 0.000000
-10.000036 0.000000 0.000000
-10.000036 0.000000 0.000000
-10.000036 -0.000000 0.000000
-10.000036 0.000000 0.000000
-10.000036 0.000000 0.000000
-10.000035 -0.000022 0.000000
-10.000025 -0.004156 0.000000
-10.000000 0.004155 0.000000
-10.000000 0.000021 0.000000
-10.000000 -0.000000 0.000000
-10.000000 -0.000000 0.000000
-10.000000 0.000000 0.000000
-10.000000 0.000000 0.000000
-10.000000 -0.000000 0.000000
-10.000000 -0.000000 0.000000
-10.000000 0.000000 0.000000
-10.000000 -0.000000 0.000000
-10.000000 -0.000000 0.000000
-10.000000 0.000000 0.000000
-10.000000 -0.000000 0.000000
-10.000000 -0.000000 0.000000
-10.000000 -0.000000 0.000000
-10.000000 0.000000 0.000000
-10.000000 -0.000000 0.000000
-10.000000 -0.000000 0.000000
-10.000000 0.000000 0.000000
-10.000000 0.000000 0.000000
-10.000000 -0.000000 0.000000
-10.000000 0.000000 0.000000
-10.000000 0.000000 0.000000
-10.000000 -0.000021 0.000000
-10.000000 -0.004155 0.000000
-10.000000 0.004155 0.000000
-10.000000 0.000021 0.000000
-10.000000 -0.000000 0.000000
-10.000000 -0.000000 0.000000
-10.000000 0.000000 0.000000
-10.000000 0.000000 0.000000
-10.000000 -0.000000 0.000000
-10.000000 -0.000000 0.000000
-10.000000 0.000000 0.000000
-10.000000 -0.000000 0.000000
-10.000000 0.000000 0.000000
-10.000000 0.000000 0.000000
-10.000000 -0.000000 0.000000
-10.000000 -0.000000 0.000000
-10.000000 -0.000000 0.000000
-10.000000 0.000000 0.000000
-10.000000 -0.000000 0.000000
-10.000000 -0.000000 0.000000
-10.000000 0.000000 0.000000
-10.000000 0.000000 0.000000
-10.000000 -0.000000 0.000000
-10.000000 0.000000 0.000000
-10.000000 0.000000 0.000000
-10.000000 -0.000021 0.000000
-10.000000 -0.004155 0.000000
-10.000000 0.004155 0.000000
-10.000000 0.000021 0.000000
-10.000000 -0.000000 0.000000
-10.000000 -0.000000 0.000000
-10.000000 0.000000 0.000000