# vtk DataFile Version 4.0
hesp visualization file
ASCII
DATASET UNSTRUCTURED_GRID
POINTS 1250 double
35.404226 1.165410 4.000000
30.579850 -0.623682 4.000000
34.078859 5.875894 4.000000
32.710698 7.821164 4.000000
31.364698 4.190007 4.000000
30.351366 13.597084 4.000000
32.564465 10.560526 4.000000
32.144914 11.532038 4.000000
31.152260 14.838765 4.000000
33.707760 12.877044 4.000000
32.056110 12.527305 4.000000
31.775205 14.887400 4.000000
31.952862 15.148723 4.000000
31.737172 16.701211 4.000000
31.576532 17.550014 4.000000
28.750711 16.591378 4.000000
31.185003 19.383632 4.000000
31.945925 15.488070 4.000000
28.915363 22.174412 4.000000
29.865971 18.188918 4.000000
33.733160 22.128174 4.000000
32.119862 29.746889 4.000000
34.138538 24.614266 4.000000
32.190264 30.421631 4.000000
31.328528 28.245385 4.000000
31.442895 -14.683860 4.000000
33.255707 0.631582 4.000000
33.718892 -5.496583 4.000000
30.994640 2.183434 4.000000
30.152237 8.122626 4.000000
30.317456 5.125837 4.000000
31.189019 7.795415 4.000000
30.897309 13.230354 4.000000
33.379150 14.025338 4.000000
31.181006 13.444315 4.000000
29.979833 13.301000 4.000000
30.482335 12.418191 4.000000
32.185032 14.918819 4.000000
31.833169 17.453986 4.000000
33.826781 15.461603 4.000000
30.841320 14.361900 4.000000
32.290484 16.748457 4.000000
32.637949 15.913628 4.000000
33.741962 19.973978 4.000000
31.159999 24.016773 4.000000
32.008946 23.254751 4.000000
31.536571 22.049943 4.000000
33.732063 34.671546 4.000000
31.516665 27.389554 4.000000
31.442895 43.867873 4.000000
31.853812 -4.992279 4.000000
35.621094 1.347293 4.000000
33.531324 2.076876 4.000000
29.810443 8.177781 4.000000
36.043477 3.202954 4.000000
31.409588 9.688836 4.000000
32.180704 8.662495 4.000000
30.977892 5.245469 4.000000
30.464333 13.295080 4.000000
33.277964 12.078753 4.000000
33.631903 11.955700 4.000000
28.783008 15.462826 4.000000
35.754098 13.898998 4.000000
34.345419 13.727401 4.000000
32.082576 13.934057 4.000000
32.597659 17.091238 4.000000
29.886489 20.247560 4.000000
31.338427 20.475303 4.000000
32.891347 18.762032 4.000000
33.843852 16.534867 4.000000
32.180015 25.930305 4.000000
32.980456 18.208561 4.000000
32.178430 22.854577 4.000000
33.642319 28.066361 4.000000
31.822152 34.156556 4.000000
31.459118 -3.786153 4.000000
34.341420 -9.144388 4.000000
31.367604 5.216536 4.000000
36.556228 2.486794 4.000000
30.931284 3.844976 4.000000
31.355809 3.851808 4.000000
30.366158 8.395031 4.000000
30.448223 10.976525 4.000000
33.586005 9.369942 4.000000
34.349222 6.437190 4.000000
34.440242 16.199374 4.000000
33.901672 14.623148 4.000000
34.426914 11.761119 4.000000
32.258660 15.739471 4.000000
34.666789 15.972143 4.000000
31.201760 17.705988 4.000000
35.588178 18.253440 4.000000
31.710507 14.019088 4.000000
30.641837 22.615308 4.000000
30.224326 19.045473 4.000000
36.401645 26.759088 4.000000
35.659713 28.800903 4.000000
29.533682 26.689590 4.000000
34.341425 38.328401 4.000000
31.452415 32.972732 4.000000
32.418917 1.993443 4.000000
31.158604 3.367181 4.000000
31.596660 -6.638258 4.000000
33.079792 6.182876 4.000000
30.712865 8.853369 4.000000
30.750810 11.174380 4.000000
33.197122 7.785167 4.000000
32.942010 9.769192 4.000000
32.369255 9.282312 4.000000
33.013982 12.758320 4.000000
30.654290 13.972393 4.000000
34.708518 10.588694 4.000000
35.836439 17.301073 4.000000
32.512881 15.430084 4.000000
30.110873 14.337023 4.000000
35.417770 14.495865 4.000000
31.018594 20.304674 4.000000
32.745954 17.891177 4.000000
33.476293 24.717582 4.000000
31.472699 21.425771 4.000000
31.111946 23.271327 4.000000
34.746745 24.067862 4.000000
35.080365 32.227409 4.000000
34.352498 26.298579 4.000000
29.886163 28.889344 4.000000
30.194446 -4.965096 4.000000
31.414200 -8.182794 4.000000
37.817674 5.641393 4.000000
29.330320 6.581682 4.000000
32.117699 6.272235 4.000000
31.242154 5.822905 4.000000
31.312220 8.325877 4.000000
32.582027 12.083864 4.000000
33.463911 11.013870 4.000000
34.058727 9.270170 4.000000
29.544358 12.086333 4.000000
34.906169 11.608717 4.000000
32.386955 15.067581 4.000000
33.851235 16.165201 4.000000
34.567724 10.980802 4.000000
34.716736 16.919660 4.000000
33.927718 18.692031 4.000000
33.964717 23.346928 4.000000
30.846922 19.978576 4.000000
29.330695 23.850990 4.000000
32.613128 18.241248 4.000000
30.451023 18.022088 4.000000
40.025610 22.942447 4.000000
31.414587 37.366917 4.000000
30.194428 34.149123 4.000000
31.204713 -0.758531 4.000000
36.477780 -2.649191 4.000000
31.904157 -1.074538 4.000000
33.062615 2.883301 4.000000
29.784970 10.763359 4.000000
30.711976 6.436237 4.000000
33.949172 8.143954 4.000000
36.829640 11.504909 4.000000
29.908068 7.123123 4.000000
31.608317 13.519194 4.000000
31.801740 9.967415 4.000000
35.671022 15.028803 4.000000
33.991159 13.645444 4.000000
31.503820 14.298297 4.000000
32.655021 22.788276 4.000000
30.727537 17.680915 4.000000
32.061182 24.215382 4.000000
34.662003 23.128948 4.000000
32.721953 22.140893 4.000000
30.266870 21.033545 4.000000
32.534273 26.515111 4.000000
33.856688 19.048788 4.000000
31.197909 27.394891 4.000000
32.743500 29.426697 4.000000
31.623312 30.469359 4.000000
40.453997 -9.913537 4.000000
33.554108 -1.566790 4.000000
38.325898 1.013768 4.000000
32.159311 6.886568 4.000000
31.535982 6.915329 4.000000
32.223474 4.750893 4.000000
34.542238 9.845023 4.000000
38.012734 9.432154 4.000000
31.131967 10.635269 4.000000
33.278616 12.984965 4.000000
32.618148 13.710075 4.000000
34.522102 12.201269 4.000000
34.232881 17.413574 4.000000
36.272276 18.898751 4.000000
37.115681 17.869423 4.000000
32.917859 17.702280 4.000000
35.365803 19.233336 4.000000
35.750328 20.092093 4.000000
34.883998 17.365710 4.000000
31.030004 21.093988 4.000000
34.447591 18.881556 4.000000
34.261970 19.793908 4.000000
35.238691 30.624609 4.000000
34.006087 19.391170 4.000000
40.453997 39.097551 4.000000
30.930484 0.826821 4.000000
31.046688 1.679094 4.000000
34.555195 -3.785195 4.000000
37.369257 6.707516 4.000000
32.294237 7.188614 4.000000
34.934714 5.895013 4.000000
30.704570 12.074647 4.000000
36.642485 10.010335 4.000000
36.050415 10.026631 4.000000
35.113100 8.686577 4.000000
35.198505 10.552766 4.000000
36.768597 15.487660 4.000000
38.344573 16.178907 4.000000
32.654478 15.616732 4.000000
31.683142 18.991595 4.000000
35.643361 18.744768 4.000000
34.317084 18.292489 4.000000
36.460613 16.263422 4.000000
30.659893 18.836411 4.000000
31.597360 20.090974 4.000000
34.213138 20.493257 4.000000
34.625991 25.847614 4.000000
37.566601 32.042402 4.000000
29.369604 29.067216 4.000000
33.240353 30.939313 4.000000
32.964337 0.441178 4.000000
32.470181 -6.186873 4.000000
33.136562 -0.212161 4.000000
34.929328 3.437813 4.000000
35.205138 11.144921 4.000000
32.743546 3.944915 4.000000
37.626906 8.974747 4.000000
38.075135 11.370136 4.000000
35.169654 12.910526 4.000000
38.103946 10.892607 4.000000
34.289320 12.509083 4.000000
37.751176 13.960036 4.000000
34.165565 14.813028 4.000000
38.892329 17.458440 4.000000
37.622477 16.723016 4.000000
36.219157 14.097252 4.000000
36.742615 17.105745 4.000000
31.576421 19.276918 4.000000
33.378083 22.303814 4.000000
36.687773 22.954547 4.000000
35.459449 23.965096 4.000000
34.012745 25.980531 4.000000
33.098300 29.485238 4.000000
32.470322 35.370952 4.000000
32.631138 28.532743 4.000000
31.891352 -2.810747 4.000000
34.005531 -1.095420 4.000000
36.676303 3.543932 4.000000
33.870211 2.464039 4.000000
36.329359 5.491032 4.000000
38.766286 9.137578 4.000000
32.061975 8.420500 4.000000
35.963072 12.760280 4.000000
34.966850 10.261057 4.000000
39.305703 16.624730 4.000000
34.721642 12.397028 4.000000
35.470035 11.038927 4.000000
36.764322 13.121214 4.000000
35.325973 13.648288 4.000000
37.270108 17.096315 4.000000
38.890822 14.962647 4.000000
34.583235 17.432673 4.000000
35.124883 14.731343 4.000000
32.144310 20.721929 4.000000
35.097409 19.553963 4.000000
38.405501 21.969585 4.000000
31.000688 29.123723 4.000000
36.346923 25.119837 4.000000
32.793933 25.722990 4.000000
30.785852 29.925331 4.000000
31.073838 -3.403493 4.000000
34.219621 -3.701274 4.000000
36.502167 11.422957 4.000000
34.232228 2.235090 4.000000
37.633050 9.427224 4.000000
36.392058 8.033160 4.000000
36.460039 9.663256 4.000000
34.761834 8.080810 4.000000
36.658947 11.079189 4.000000
36.386130 13.508202 4.000000
38.278967 13.863073 4.000000
37.784377 13.422249 4.000000
37.668005 18.080674 4.000000
34.922186 16.356569 4.000000
37.335455 16.162556 4.000000
34.354645 16.962346 4.000000
38.895348 15.425000 4.000000
38.281744 20.690317 4.000000
38.582846 21.192232 4.000000
35.665027 23.296436 4.000000
36.416926 27.440867 4.000000
32.549773 27.634811 4.000000
39.386677 19.874450 4.000000
33.254746 32.345492 4.000000
31.066900 32.611067 4.000000
31.605845 -0.732295 4.000000
31.152916 -3.106736 4.000000
40.181522 2.981377 4.000000
38.943899 6.004014 4.000000
38.055561 5.437897 4.000000
35.856115 6.567908 4.000000
34.696551 9.494761 4.000000
33.884168 8.628113 4.000000
35.345472 12.556009 4.000000
38.404696 11.605369 4.000000
38.333631 10.640758 4.000000
37.165705 12.307746 4.000000
39.527120 16.764660 4.000000
38.090815 14.757833 4.000000
38.003460 20.152263 4.000000
34.593518 18.609835 4.000000
34.316226 19.360505 4.000000
37.583049 20.131524 4.000000
36.991660 18.241629 4.000000
36.568559 24.739181 4.000000
38.852620 21.705652 4.000000
34.670213 19.415347 4.000000
36.914677 31.738452 4.000000
31.108693 32.350389 4.000000
31.353531 31.657528 4.000000
33.467514 -0.901846 4.000000
33.707265 1.157874 4.000000
33.681775 -1.985770 4.000000
35.681822 2.765549 4.000000
35.952871 4.476144 4.000000
39.011846 5.231574 4.000000
38.363813 6.752024 4.000000
40.166245 8.532149 4.000000
36.553778 10.743244 4.000000
36.899665 11.103053 4.000000
36.635597 12.412988 4.000000
39.503869 13.262691 4.000000
36.558475 14.618297 4.000000
37.916068 16.500600 4.000000
41.215049 16.018574 4.000000
36.098853 19.724141 4.000000
38.816813 17.014772 4.000000
36.693994 18.244014 4.000000
36.561832 20.331412 4.000000
[...]
POINT_DATA 1250
SCALARS m double
LOOKUP_TABLE default
1.000000
1.000000
1.000000
1.000000
1.000000
1.000000
1.000000
1.000000
1.000000
1.000000
1.000000
1.000000
1.000000
1.000000
1.000000
1.000000
1.000000
1.000000
1.000000
1.000000
1.000000
1.000000
1.000000
1.000000
1.000000
1.000000
1.000000
1.000000
1.000000
1.000000
1.000000
1.000000
1.000000
1.000000
1.000000
1.000000
1.000000
1.000000
1.000000
1.000000
1.000000
1.000000
1.000000
1.000000
1.000000
1.000000
1.000000
1.000000
1.000000
1.000000
1.000000
1.000000
1.000000
1.000000
1.000000
1.000000
1.000000
1.000000
1.000000
1.000000
1.000000
1.000000
1.000000
1.000000
1.000000
1.000000
1.000000
1.000000
1.000000
1.000000
1.000000
1.000000
1.000000
1.000000
1.000000
1.000000
1.000000
1.000000
1.000000
1.000000
1.000000
1.000000
1.000000
1.000000
1.000000
1.000000
1.000000
1.000000
1.000000
1.000000
1.000000
1.000000
1.000000
1.000000
1.000000
1.000000
1.000000
1.000000
1.000000
1.000000
1.000000
1.000000
1.000000
1.000000
1.000000
1.000000
1.000000
1.000000
1.000000
1.000000
1.000000
1.000000
1.000000
1.000000
1.000000
1.000000
1.000000
1.000000
1.000000
1.000000
1.000000
1.000000
1.000000
1.000000
1.000000
1.000000
1.000000
1.000000
1.000000
1.000000
1.000000
1.000000
1.000000
1.000000
1.000000
1.000000
1.000000
1.000000
1.000000
1.000000
1.000000
1.000000
1.000000
1.000000
1.000000
1.000000
1.000000
1.000000
1.000000
1.000000
1.000000
1.000000
1.000000
1.000000
1.000000
1.000000
1.000000
1.000000
1.000000
1.000000
1.000000
1.000000
1.000000
1.000000
1.000000
1.000000
1.000000
1.000000
1.000000
1.000000
1.000000
1.000000
1.000000
1.000000
1.000000
1.000000
1.000000
1.000000
1.000000
1.000000
1.000000
1.000000
1.000000
1.000000
1.000000
1.000000
1.000000
1.000000
1.000000
1.000000
1.000000
1.000000
1.000000
1.000000
1.000000
1.000000
1.000000
1.000000
1.000000
1.000000
1.000000
1.000000
1.000000
1.000000
1.000000
1.000000
1.000000
1.000000
1.000000
1.000000
1.000000
1.000000
1.000000
1.000000
1.000000
1.000000
1.000000
1.000000
1.000000
1.000000
1.000000
1.000000
1.000000
1.000000
1.000000
1.000000
1.000000
1.000000
1.000000
1.000000
1.000000
1.000000
1.000000
1.000000
1.000000
1.000000
1.000000
1.000000
1.000000
1.000000
1.000000
1.000000
1.000000
1.000000
1.000000
1.000000
1.000000
1.000000
1.000000
1.000000
1.000000
1.000000
1.000000
1.000000
1.000000
1.000000
1.000000
1.000000
1.000000
1.000000
1.000000
1.000000
1.000000
1.000000
1.000000
1.000000
1.000000
1.000000
1.000000
1.000000
1.000000
1.000000
1.000000
1.000000
1.000000
1.000000
1.000000
1.000000
1.000000
1.000000
1.000000
1.000000
1.000000
1.000000
1.000000
1.000000
1.000000
1.000000
1.000000
1.000000
1.000000
1.000000
1.000000
1.000000
1.000000
1.000000
1.000000
1.000000
1.000000
1.000000
1.000000
1.000000
1.000000
1.000000
1.000000
1.000000
1.000000
1.000000
1.000000
1.000000
1.000000
1.000000
1.000000
1.000000
1.000000
1.000000
1.000000
1.000000
1.000000
1.000000
1.000000
1.000000
1.000000
1.000000
1.000000
1.000000
1.000000
1.000000
1.000000
1.000000
1.000000
1.000000
1.000000
1.000000
1.000000
1.000000
1.000000
1.000000
1.000000
1.000000
1.000000
1.000000
1.000000
1.000000
1.000000
1.000000
1.000000
1.000000
1.000000
1.000000
1.000000
1.000000
1.000000
1.000000
1.000000
1.000000
1.000000
1.000000
1.000000
1.000000
1.000000
1.000000
1.000000
1.000000
1.000000
1.000000
1.000000
1.000000
1.000000
1.000000
1.000000
1.000000
1.000000
1.000000
1.000000
1.000000
1.000000
1.000000
1.000000
1.000000
1.000000
1.000000
1.000000
1.000000
1.000000
1.000000
1.000000
1.000000
1.000000
1.000000
1.000000
1.000000
1.000000
1.000000
1.000000
1.000000
1.000000
1.000000
1.000000
1.000000
1.000000
1.000000
1.000000
1.000000
1.000000
1.000000
1.000000
1.000000
1.000000
1.000000
1.000000
1.000000
1.000000
1.000000
1.000000
1.000000
1.000000
1.000000
1.000000
1.000000
1.000000
1.000000
1.000000
1.000000
1.000000
1.000000
1.000000
1.000000
1.000000
1.000000
1.000000
1.000000
1.000000
1.000000
1.000000
1.000000
1.000000
1.000000
1.000000
1.000000
1.000000
1.000000
1.000000
1.000000
1.000000
1.000000
1.000000
1.000000
1.000000
1.000000
1.000000
1.000000
1.000000
1.000000
1.000000
1.000000
1.000000
1.000000
1.000000
1.000000
1.000000
1.000000
1.000000
1.000000
1.000000
1.000000
1.000000
1.000000
1.000000
1.000000
1.000000
1.000000
1.000000
1.000000
1.000000
1.000000
1.000000
1.000000
1.000000
1.000000
1.000000
1.000000
1.000000
1.000000
1.000000
1.000000
1.000000
1.000000
1.000000
1.000000
1.000000
1.000000
1.000000
1.000000
1.000000
1.000000
1.000000
1.000000
1.000000
1.000000
1.000000
1.000000
1.000000
1.000000
1.000000
1.000000
1.000000
1.000000
1.000000
1.000000
1.000000
1.000000
1.000000
1.000000
1.000000
1.000000
1.000000
1.000000
1.000000
1.000000
1.000000
1.000000
1.000000
1.000000
1.000000
1.000000
1.000000
1.000000
1.000000
1.000000
1.000000
1.000000
1.000000
1.000000
1.000000
1.000000
1.000000
1.000000
1.000000
1.000000
1.000000
1.000000
1.000000
1.000000
1.000000
1.000000
1.000000
1.000000
1.000000
1.000000
1.000000
1.000000
1.000000
1.000000
1.000000
1.000000
1.000000
1.000000
1.000000
1.000000
1.000000
1.000000
1.000000
1.000000
1.000000
1.000000
1.000000
1.000000
1.000000
1.000000
1.000000
1.000000
1.000000
1.000000
1.000000
1.000000
1.000000
1.000000
1.000000
1.000000
1.000000
1.000000
1.000000
1.000000
1.000000
1.000000
1.000000
1.000000
1.000000
1.000000
1.000000
1.000000
1.000000
1.000000
1.000000
1.000000
1.000000
1.000000
1.000000
1.000000
1.000000
1.000000
1.000000
1.000000
1.000000
1.000000
1.000000
1.000000
1.000000
1.000000
1.000000
1.000000
1.000000
1.000000
1.000000
1.000000
1.000000
1.000000
1.000000
1.000000
1.000000
1.000000
1.000000
1.000000
1.000000
1.000000
1.000000
1.000000
1.000000
1.000000
1.000000
1.000000
1.000000
1.000000
1.000000
1.000000
1.000000
1.000000
1.000000
1.000000
1.000000
1.000000
1.000000
1.000000
1.000000
1.000000
1.000000
1.000000
1.000000
1.000000
1.000000
1.000000
1.000000
1.000000
1.000000
1.000000
1.000000
1.000000
1.000000
1.000000
1.000000
1.000000
1.000000
1.000000
1.000000
1.000000
1.000000
1.000000
1.000000
1.000000
1.000000
1.000000
1.000000
1.000000
1.000000
1.000000
1.000000
1.000000
1.000000
1.000000
1.000000
1.000000
1.000000
1.000000
1.000000
1.000000
1.000000
1.000000
1.000000
1.000000
1.000000
1.000000
1.000000
1.000000
1.000000
1.000000
1.000000
1.000000
1.000000
1.000000
1.000000
1.000000
1.000000
1.000000
1.000000
1.000000
1.000000
1.000000
1.000000
1.000000
1.000000
1.000000
1.000000
1.000000
1.000000
1.000000
1.000000
1.000000
1.000000
1.000000
1.000000
1.000000
1.000000
1.000000
1.000000
1.000000
1.000000
1.000000
1.000000
1.000000
1.000000
1.000000
1.000000
1.000000
1.000000
1.000000
1.000000
1.000000
1.000000
1.000000
1.000000
1.000000
1.000000
1.000000
1.000000
1.000000
1.000000
1.000000
1.000000
1.000000
1.000000
1.000000
1.000000
1.000000
1.000000
1.000000
1.000000
1.000000
1.000000
1.000000
1.000000
1.000000
1.000000
1.000000
1.000000
1.000000
1.000000
1.000000
1.000000
1.000000
1.000000
1.000000
1.000000
1.000000
1.000000
1.000000
1.000000
1.000000
1.000000
1.000000
1.000000
1.000000
1.000000
1.000000
1.000000
1.000000
1.000000
1.000000
1.000000
1.000000
1.000000
1.000000
1.000000
1.000000
1.000000
1.000000
1.000000
1.000000
1.000000
1.000000
1.000000
1.000000
1.000000
1.000000
1.000000
1.000000
1.000000
1.000000
1.000000
1.000000
1.000000
1.000000
1.000000
1.000000
1.000000
1.000000
1.000000
1.000000
1.000000
1.000000
1.000000
1.000000
1.000000
1.000000
1.000000
1.000000
1.000000
1.000000
1.000000
1.000000
1.000000
1.000000
1.000000
1.000000
1.000000
1.000000
1.000000
1.000000
1.000000
1.000000
1.000000
1.000000
1.000000
1.000000
1.000000
1.000000
1.000000
1.000000
1.000000
1.000000
1.000000
1.000000
1.000000
1.000000
1.000000
1.000000
1.000000
1.000000
1.000000
1.000000
1.000000
1.000000
1.000000
1.000000
1.000000
1.000000
1.000000
1.000000
1.000000
1.000000
1.000000
1.000000
1.000000
1.000000
1.000000
1.000000
1.000000
1.000000
1.000000
1.000000
1.000000
1.000000
1.000000
1.000000
1.000000
1.000000
1.000000
1.000000
1.000000
1.000000
1.000000
1.000000
1.000000
1.000000
1.000000
1.000000
1.000000
1.000000
1.000000
1.000000
1.000000
1.000000
1.000000
1.000000
1.000000
1.000000
1.000000
1.000000
1.000000
1.000000
1.000000
1.000000
1.000000
1.000000
1.000000
1.000000
1.000000
1.000000
1.000000
1.000000
1.000000
1.000000
1.000000
1.000000
1.000000
1.000000
1.000000
1.000000
1.000000
1.000000
1.000000
1.000000
1.000000
1.000000
1.000000
1.000000
1.000000
1.000000
1.000000
1.000000
1.000000
1.000000
1.000000
1.000000
1.000000
1.000000
1.000000
1.000000
1.000000
1.000000
1.000000
1.000000
1.000000
1.000000
1.000000
1.000000
1.000000
1.000000
1.000000
1.000000
1.000000
1.000000
1.000000
1.000000
1.000000
1.000000
1.000000
1.000000
1.000000
1.000000
1.000000
1.000000
1.000000
1.000000
1.000000
1.000000
1.000000
1.000000
1.000000
1.000000
1.000000
1.000000
1.000000
1.000000
1.000000
1.000000
1.000000
1.000000
1.000000
1.000000
1.000000
1.000000
1.000000
1.000000
1.000000
1.000000
1.000000
1.000000
1.000000
1.000000
1.000000
1.000000
1.000000
1.000000
1.000000
1.000000
1.000000
1.000000
1.000000
1.000000
1.000000
1.000000
1.000000
1.000000
1.000000
1.000000
1.000000
1.000000
1.000000
1.000000
1.000000
1.000000
1.000000
1.000000
1.000000
1.000000
1.000000
1.000000
1.000000
1.000000
1.000000
1.000000
1.000000
1.000000
1.000000
1.000000
1.000000
1.000000
1.000000
1.000000
1.000000
1.000000
1.000000
1.000000
1.000000
1.000000
1.000000
1.000000
1.000000
1.000000
1.000000
1.000000
1.000000
1.000000
1.000000
1.000000
1.000000
1.000000
1.000000
1.000000
1.000000
1.000000
1.000000
1.000000
1.000000
1.000000
1.000000
1.000000
1.000000
1.000000
1.000000
1.000000
1.000000
1.000000
1.000000
1.000000
1.000000
1.000000
1.000000
1.000000
1.000000
1.000000
1.000000
1.000000
1.000000
1.000000
1.000000
1.000000
1.000000
1.000000
1.000000
1.000000
1.000000
1.000000
1.000000
1.000000
1.000000
1.000000
1.000000
1.000000
1.000000
1.000000
1.000000
1.000000
1.000000
1.000000
1.000000
1.000000
1.000000
1.000000
1.000000
1.000000
1.000000
1.000000
1.000000
1.000000
1.000000
1.000000
1.000000
1.000000
1.000000
1.000000
1.000000
1.000000
1.000000
1.000000
1.000000
1.000000
1.000000
1.000000
1.000000
1.000000
1.000000
1.000000
1.000000
1.000000
1.000000
1.000000
1.000000
1.000000
1.000000
1.000000
1.000000
1.000000
1.000000
1.000000
1.000000
1.000000
1.000000
1.000000
1.000000
1.000000
1.000000
1.000000
1.000000
1.000000
1.000000
1.000000
1.000000
1.000000
1.000000
1.000000
1.000000
1.000000
1.000000
1.000000
1.000000
1.000000
1.000000
1.000000
1.000000
1.000000
1.000000
1.000000
1.000000
1.000000
1.000000
1.000000
1.000000
1.000000
1.000000
1.000000
1.000000
1.000000
1.000000
1.000000
1.000000
1.000000
1.000000
1.000000
1.000000
1.000000
1.000000
1.000000
1.000000
1.000000
1.000000
1.000000
1.000000
1.000000
1.000000
1.000000
1.000000
1.000000
1.000000
1.000000
1.000000
1.000000
1.000000
1.000000
1.000000
1.000000
1.000000
1.000000
1.000000
1.000000
1.000000
1.000000
1.000000
1.000000
1.000000
1.000000
1.000000
1.000000
1.000000
1.000000
1.000000
1.000000
1.000000
1.000000
1.000000
1.000000
1.000000
1.000000
1.000000
1.000000
1.000000
1.000000
1.000000
1.000000
1.000000
1.000000
1.000000
1.000000
1.000000
1.000000
1.000000
1.000000
1.000000
1.000000
VECTORS v double
-7.960568 -13.767651 0.000000
2.922285 -3.541347 0.000000
-2.720528 4.936562 0.000000
2.106598 4.746456 0.000000
-13.726227 -5.476288 0.000000
-14.886525 0.141361 0.000000
1.182399 -4.802847 0.000000
4.443013 -5.806072 0.000000
5.360904 9.928895 0.000000
6.880025 7.302608 0.000000
6.359821 -5.582255 0.000000
-1.578103 13.082262 0.000000
-0.586143 7.715750 0.000000
-11.527918 8.350023 0.000000
-7.655414 5.494913 0.000000
6.357456 -2.718220 0.000000
1.003116 1.430589 0.000000
9.094167 -10.695272 0.000000
-5.796787 3.799996 0.000000
-1.299284 -7.054185 0.000000
-0.136200 -9.098711 0.000000
-5.733812 7.900859 0.000000
-3.166483 18.594066 0.000000
-3.507735 0.421969 0.000000
-2.092383 1.993992 0.000000
2.630965 -13.726701 0.000000
0.619117 2.705549 0.000000
5.359991 -9.594967 0.000000
6.498095 0.187781 0.000000
-0.487342 6.254595 0.000000
-1.403232 -8.363909 0.000000
8.191368 -0.986205 0.000000
-3.392892 13.457383 0.000000
2.594001 4.876671 0.000000
1.432969 3.941672 0.000000
-0.787029 4.835714 0.000000
-15.489838 3.125177 0.000000
-9.779280 -9.208595 0.000000
-4.745216 2.987999 0.000000
7.397730 -9.754148 0.000000
6.043886 -10.246753 0.000000
8.273266 4.592291 0.000000
-8.319163 3.393509 0.000000
-1.314772 19.235727 0.000000
1.229985 0.131912 0.000000
4.387248 -12.568040 0.000000
7.034414 -5.239062 0.000000
5.385146 9.585524 0.000000
-1.276114 8.020150 0.000000
2.630965 13.726701 0.000000
-0.081784 -9.565198 0.000000
7.049234 -4.311973 0.000000
-5.265429 -3.773191 0.000000
-5.926826 -3.865012 0.000000
5.686786 -9.870715 0.000000
4.985297 0.952967 0.000000
-3.565439 -1.860767 0.000000
-3.534119 -3.283444 0.000000
-1.358421 11.831762 0.000000
-3.350738 2.229726 0.000000
-12.718946 -2.262831 0.000000
-12.558007 5.531841 0.000000
12.359778 -3.053261 0.000000
-1.851905 4.391029 0.000000
14.601003 -13.636325 0.000000
7.927953 -8.923508 0.000000
2.574641 8.448267 0.000000
-6.992555 1.419919 0.000000
-10.170185 -3.521935 0.000000
13.164522 -9.334060 0.000000
3.785857 -0.654963 0.000000
-2.541927 -7.445382 0.000000
-7.019900 7.591344 0.000000
-3.484431 10.200373 0.000000
-0.277541 9.464439 0.000000
0.032566 -3.578903 0.000000
6.835050 -10.617898 0.000000
8.092028 -6.679090 0.000000
5.980432 -2.614547 0.000000
9.431753 3.600352 0.000000
-3.488492 -5.043625 0.000000
6.858543 -1.663904 0.000000
-3.674225 9.482238 0.000000
-6.644240 -7.770663 0.000000
5.232735 -16.184772 0.000000
0.497403 17.673154 0.000000
-10.424976 -7.856994 0.000000
7.034849 -11.166115 0.000000
-10.144135 2.651960 0.000000
5.711005 -4.002052 0.000000
-4.055306 0.309479 0.000000
-3.602518 -4.640944 0.000000
4.173317 -10.674787 0.000000
-10.341067 11.003635 0.000000
12.588521 -3.537917 0.000000
1.418826 7.297170 0.000000
4.145438 7.212014 0.000000
3.595432 17.219067 0.000000
6.835055 10.617898 0.000000
0.004981 3.583419 0.000000
-4.971851 -0.423871 0.000000
6.270535 -6.414627 0.000000
-3.412083 -18.515980 0.000000
-11.920816 -2.911303 0.000000
-0.734937 -5.344457 0.000000
0.785717 5.233361 0.000000
2.212681 -1.258811 0.000000
12.517350 5.599516 0.000000
-12.274063 6.861966 0.000000
0.283961 0.104560 0.000000
3.381561 -15.081343 0.000000
-0.953504 -13.991549 0.000000
6.411237 3.085276 0.000000
0.937899 -1.980504 0.000000
-14.624831 15.016649 0.000000
8.829111 0.563310 0.000000
-3.298185 -2.120406 0.000000
-7.180643 7.662853 0.000000
-2.333103 -4.490528 0.000000
3.199990 0.103812 0.000000
5.962596 1.368121 0.000000
0.038864 -4.293408 0.000000
-1.187545 17.870269 0.000000
-0.453838 -10.679410 0.000000
-1.571352 -0.298915 0.000000
-1.377037 -6.326882 0.000000
-1.995838 -10.927628 0.000000
4.817028 1.522904 0.000000
-12.363820 0.929366 0.000000
9.118078 1.397564 0.000000
-1.354680 6.817140 0.000000
-4.238622 7.250807 0.000000
1.255699 5.816458 0.000000
-6.809589 4.665685 0.000000
-17.241056 -14.148763 0.000000
-8.096571 -7.585191 0.000000
-2.921074 2.486814 0.000000
-4.904003 2.530772 0.000000
8.376464 -0.992227 0.000000
-16.598980 -7.222551 0.000000
1.966922 10.674302 0.000000
7.618209 1.699932 0.000000
-3.124543 7.045188 0.000000
-3.980834 -5.402869 0.000000
-3.192084 7.963012 0.000000
-9.225838 3.464367 0.000000
-5.241363 -5.411346 0.000000
10.631155 -8.987063 0.000000
-1.995402 10.927779 0.000000
-1.377190 6.326889 0.000000
4.834405 -6.068677 0.000000
-0.611600 -18.237711 0.000000
-4.253705 -1.418196 0.000000
-4.776809 -2.236278 0.000000
-10.516849 -3.477052 0.000000
-3.983508 -0.900586 0.000000
4.085625 -5.922233 0.000000
-4.968120 8.368115 0.000000
-9.788123 -3.774634 0.000000
-7.080826 -10.130584 0.000000
-18.317238 -21.116491 0.000000
6.054534 5.665737 0.000000
10.064355 7.056167 0.000000
10.514979 16.353390 0.000000
6.979855 9.290215 0.000000
1.760252 -7.786813 0.000000
-0.136254 2.273532 0.000000
4.325492 -2.065946 0.000000
-12.134731 -2.593727 0.000000
-2.506194 -6.513013 0.000000
3.026669 15.271991 0.000000
-3.247211 -10.342418 0.000000
0.201976 7.884363 0.000000
-8.027003 4.783666 0.000000
2.524837 7.172050 0.000000
4.837053 -9.997753 0.000000
-5.285987 -11.650770 0.000000
-11.132938 -5.618078 0.000000
-2.970023 -6.546106 0.000000
-8.081779 3.992715 0.000000
-1.202170 -2.087329 0.000000
7.280636 -13.194416 0.000000
-3.535089 4.459700 0.000000
-2.586813 3.882595 0.000000
3.659892 0.001971 0.000000
-4.322065 9.840685 0.000000
-4.475378 7.856320 0.000000
1.308052 -6.202395 0.000000
0.371299 18.521091 0.000000
-13.839023 1.314979 0.000000
-1.433136 -11.074837 0.000000
5.388186 -4.373894 0.000000
-3.285369 14.070350 0.000000
-7.242645 -8.696046 0.000000
-4.027558 -0.436805 0.000000
0.592667 4.582637 0.000000
-2.865662 -12.851448 0.000000
1.604699 0.970978 0.000000
-4.489219 -12.369715 0.000000
4.837053 9.997753 0.000000
-2.901606 -4.335013 0.000000
11.991002 -2.986234 0.000000
-5.628786 -11.569211 0.000000
0.547731 -9.367705 0.000000
7.179067 -6.705898 0.000000
-2.502914 -2.958494 0.000000
-6.435641 1.334741 0.000000
-7.174071 8.169685 0.000000
4.073730 -1.846538 0.000000
3.271915 -12.109232 0.000000
-0.905769 -13.704878 0.000000
6.847790 2.911707 0.000000
16.928214 6.224837 0.000000
5.241226 -2.325157 0.000000
-5.211976 -6.805667 0.000000
4.371743 1.217772 0.000000
-7.412153 0.685876 0.000000
3.392207 -8.533181 0.000000
-8.040819 -6.740703 0.000000
-0.109145 3.323610 0.000000
4.080949 -2.666224 0.000000
-5.140986 -1.089774 0.000000
0.928238 7.848020 0.000000
-14.057074 0.320885 0.000000
0.400761 8.139957 0.000000
2.307977 -0.976776 0.000000
-3.935605 -8.252974 0.000000
-8.673735 -8.386113 0.000000
-0.665258 -3.559844 0.000000
13.111007 -10.002405 0.000000
3.886290 -8.616707 0.000000
2.517905 -7.760002 0.000000
6.251521 -2.918022 0.000000
7.957458 -1.031064 0.000000
17.187195 -7.644004 0.000000
-7.794926 -12.315762 0.000000
4.299903 3.582342 0.000000
-0.255495 2.520974 0.000000
3.650435 12.326104 0.000000
3.991564 -15.090322 0.000000
-4.630462 -5.446062 0.000000
-4.706413 -5.717796 0.000000
-10.723192 7.648094 0.000000
3.763757 5.764817 0.000000
2.619303 -1.750815 0.000000
-1.892320 4.251902 0.000000
-10.933732 2.713074 0.000000
-5.605226 7.494715 0.000000
-3.932827 8.253434 0.000000
-1.290802 -2.215468 0.000000
-6.820642 -14.168578 0.000000
5.499580 -5.649191 0.000000
-9.073036 5.017936 0.000000
-2.616291 -1.742297 0.000000
-6.666286 2.401964 0.000000
10.499752 -5.736443 0.000000
-12.109002 -2.857320 0.000000
2.338571 5.327123 0.000000
-4.579383 4.925913 0.000000
8.619235 1.852546 0.000000
-4.659341 -2.064410 0.000000
9.678480 -21.360290 0.000000
-7.745252 -2.339313 0.000000
-0.217662 10.961231 0.000000
5.419960 -3.842872 0.000000
0.416724 7.214014 0.000000
-8.530075 -3.352090 0.000000
-1.685361 -7.768688 0.000000
-7.768080 1.787097 0.000000
-3.969708 -3.379164 0.000000
-8.456247 -1.868557 0.000000
-7.791770 6.441920 0.000000
5.294811 8.167707 0.000000
-11.555435 4.236024 0.000000
9.444383 1.337211 0.000000
8.017849 -7.199634 0.000000
6.920055 -14.050405 0.000000
3.653569 9.194094 0.000000
-0.903408 6.596396 0.000000
-7.946310 9.731271 0.000000
-10.087420 3.366116 0.000000
-4.287848 3.214184 0.000000
-8.419830 2.380860 0.000000
4.214386 2.755354 0.000000
3.804606 12.577562 0.000000
-1.673760 -5.203360 0.000000
-1.860115 -10.210481 0.000000
-6.084804 15.868244 0.000000
0.567340 10.629433 0.000000
1.143798 -0.929569 0.000000
-0.601682 -11.902016 0.000000
13.866462 -18.241380 0.000000
4.254337 5.082424 0.000000
-12.238219 -1.920443 0.000000
-5.420037 -2.829237 0.000000
1.138013 8.753065 0.000000
-7.891897 2.367694 0.000000
9.299362 -1.589721 0.000000
2.161282 11.815608 0.000000
5.959102 12.907687 0.000000
4.041489 -10.170941 0.000000
-8.575355 -9.242332 0.000000
-2.066988 -8.235332 0.000000
-8.736989 3.547784 0.000000
-6.344441 -1.843429 0.000000