# vtk DataFile Version 4.0
hesp visualization file
ASCII
DATASET UNSTRUCTURED_GRID
POINTS 1250 double
30.812976 1.294366 4.000000
30.307327 2.313731 4.000000
30.295651 3.367366 4.000000
30.295651 4.489848 4.000000
30.295651 5.612310 4.000000
30.295651 6.734772 4.000000
30.295651 7.857234 4.000000
30.295651 8.979696 4.000000
30.295651 10.102158 4.000000
30.295651 11.224620 4.000000
30.295651 12.347083 4.000000
30.295651 13.469545 4.000000
30.295651 14.592007 4.000000
30.295651 15.714469 4.000000
30.295651 16.836931 4.000000
30.295651 17.959393 4.000000
30.295651 19.081855 4.000000
30.295651 20.204317 4.000000
30.295651 21.326779 4.000000
30.295651 22.449241 4.000000
30.295651 23.571703 4.000000
30.295651 24.694165 4.000000
30.295651 25.816647 4.000000
30.307327 26.870282 4.000000
30.812976 27.889647 4.000000
31.497998 0.384633 4.000000
31.020428 2.145727 4.000000
31.031142 3.367415 4.000000
31.031143 4.489848 4.000000
31.031143 5.612310 4.000000
31.031143 6.734772 4.000000
31.031143 7.857234 4.000000
31.031143 8.979696 4.000000
31.031143 10.102158 4.000000
31.031143 11.224620 4.000000
31.031143 12.347083 4.000000
31.031143 13.469545 4.000000
31.031143 14.592007 4.000000
31.031143 15.714469 4.000000
31.031143 16.836931 4.000000
31.031143 17.959393 4.000000
31.031143 19.081855 4.000000
31.031143 20.204317 4.000000
31.031143 21.326779 4.000000
31.031143 22.449241 4.000000
31.031143 23.571703 4.000000
31.031143 24.694165 4.000000
31.031142 25.816599 4.000000
31.020428 27.038286 4.000000
31.497998 28.799380 4.000000
31.153965 1.849927 4.000000
31.642111 2.364310 4.000000
31.622388 3.367354 4.000000
31.622388 4.489848 4.000000
31.622388 5.612310 4.000000
31.622388 6.734772 4.000000
31.622388 7.857234 4.000000
31.622388 8.979696 4.000000
31.622388 10.102158 4.000000
31.622388 11.224620 4.000000
31.622388 12.347083 4.000000
31.622388 13.469545 4.000000
31.622388 14.592007 4.000000
31.622388 15.714469 4.000000
31.622388 16.836931 4.000000
31.622388 17.959393 4.000000
31.622388 19.081855 4.000000
31.622388 20.204317 4.000000
31.622388 21.326779 4.000000
31.622388 22.449241 4.000000
31.622388 23.571703 4.000000
31.622388 24.694165 4.000000
31.622388 25.816660 4.000000
31.642111 26.819704 4.000000
31.153965 27.334086 4.000000
32.086878 0.473872 4.000000
32.337596 2.141256 4.000000
32.357918 3.367412 4.000000
32.357918 4.489848 4.000000
32.357918 5.612310 4.000000
32.357918 6.734772 4.000000
32.357918 7.857234 4.000000
32.357918 8.979696 4.000000
32.357918 10.102158 4.000000
32.357918 11.224620 4.000000
32.357918 12.347083 4.000000
32.357918 13.469545 4.000000
32.357918 14.592007 4.000000
32.357918 15.714469 4.000000
32.357918 16.836931 4.000000
32.357918 17.959393 4.000000
32.357918 19.081855 4.000000
32.357918 20.204317 4.000000
32.357918 21.326779 4.000000
32.357918 22.449241 4.000000
32.357918 23.571703 4.000000
32.357918 24.694165 4.000000
32.357918 25.816601 4.000000
32.337596 27.042758 4.000000
32.086878 28.710142 4.000000
33.207749 1.639022 4.000000
32.951090 2.287905 4.000000
32.949033 3.367377 4.000000
32.949034 4.489848 4.000000
32.949034 5.612310 4.000000
32.949034 6.734772 4.000000
32.949034 7.857234 4.000000
32.949034 8.979696 4.000000
32.949034 10.102158 4.000000
32.949034 11.224620 4.000000
32.949034 12.347083 4.000000
32.949034 13.469545 4.000000
32.949034 14.592007 4.000000
32.949034 15.714469 4.000000
32.949034 16.836931 4.000000
32.949034 17.959393 4.000000
32.949034 19.081855 4.000000
32.949034 20.204317 4.000000
32.949034 21.326779 4.000000
32.949034 22.449241 4.000000
32.949034 23.571703 4.000000
32.949034 24.694165 4.000000
32.949033 25.816636 4.000000
32.951090 26.896108 4.000000
33.207749 27.544992 4.000000
33.156277 1.035322 4.000000
33.682326 2.214461 4.000000
33.684581 3.367392 4.000000
33.684581 4.489848 4.000000
33.684581 5.612310 4.000000
33.684581 6.734772 4.000000
33.684581 7.857234 4.000000
33.684581 8.979696 4.000000
33.684581 10.102158 4.000000
33.684581 11.224620 4.000000
33.684581 12.347083 4.000000
33.684581 13.469545 4.000000
33.684581 14.592007 4.000000
33.684581 15.714469 4.000000
33.684581 16.836931 4.000000
33.684581 17.959393 4.000000
33.684581 19.081855 4.000000
33.684581 20.204317 4.000000
33.684581 21.326779 4.000000
33.684581 22.449241 4.000000
33.684581 23.571703 4.000000
33.684581 24.694165 4.000000
33.684581 25.816621 4.000000
33.682326 26.969553 4.000000
33.156277 28.148691 4.000000
34.303541 1.287957 4.000000
34.275621 2.249300 4.000000
34.275602 3.367385 4.000000
34.275602 4.489848 4.000000
34.275602 5.612310 4.000000
34.275602 6.734772 4.000000
34.275602 7.857234 4.000000
34.275602 8.979696 4.000000
34.275602 10.102158 4.000000
34.275602 11.224620 4.000000
34.275602 12.347083 4.000000
34.275602 13.469545 4.000000
34.275602 14.592007 4.000000
34.275602 15.714469 4.000000
34.275602 16.836931 4.000000
34.275602 17.959393 4.000000
34.275602 19.081855 4.000000
34.275602 20.204317 4.000000
34.275602 21.326779 4.000000
34.275602 22.449241 4.000000
34.275602 23.571703 4.000000
34.275602 24.694165 4.000000
34.275602 25.816628 4.000000
34.275621 26.934713 4.000000
34.303541 27.896056 4.000000
34.978729 1.023457 4.000000
35.010657 2.242231 4.000000
35.010679 3.367387 4.000000
35.010679 4.489848 4.000000
35.010679 5.612310 4.000000
35.010679 6.734772 4.000000
35.010679 7.857234 4.000000
35.010679 8.979696 4.000000
35.010679 10.102158 4.000000
35.010679 11.224620 4.000000
35.010679 12.347083 4.000000
35.010679 13.469545 4.000000
35.010679 14.592007 4.000000
35.010679 15.714469 4.000000
35.010679 16.836931 4.000000
35.010679 17.959393 4.000000
35.010679 19.081855 4.000000
35.010679 20.204317 4.000000
35.010679 21.326779 4.000000
35.010679 22.449241 4.000000
35.010679 23.571703 4.000000
35.010679 24.694165 4.000000
35.010679 25.816627 4.000000
35.010657 26.941782 4.000000
34.978729 28.160556 4.000000
35.602145 1.123356 4.000000
35.602141 2.244930 4.000000
35.602141 3.367386 4.000000
35.602141 4.489848 4.000000
35.602141 5.612310 4.000000
35.602141 6.734772 4.000000
35.602141 7.857234 4.000000
35.602141 8.979696 4.000000
35.602141 10.102158 4.000000
35.602141 11.224620 4.000000
35.602141 12.347083 4.000000
35.602141 13.469545 4.000000
35.602141 14.592007 4.000000
35.602141 15.714469 4.000000
35.602141 16.836931 4.000000
35.602141 17.959393 4.000000
35.602141 19.081855 4.000000
35.602141 20.204317 4.000000
35.602141 21.326779 4.000000
35.602141 22.449241 4.000000
35.602141 23.571703 4.000000
35.602141 24.694165 4.000000
35.602141 25.816627 4.000000
35.602141 26.939084 4.000000
35.602145 28.060658 4.000000
36.724620 1.123356 4.000000
36.724620 2.244930 4.000000
36.724620 3.367386 4.000000
36.724620 4.489848 4.000000
36.724620 5.612310 4.000000
36.724620 6.734772 4.000000
36.724620 7.857234 4.000000
36.724620 8.979696 4.000000
36.724620 10.102158 4.000000
36.724620 11.224620 4.000000
36.724620 12.347083 4.000000
36.724620 13.469545 4.000000
36.724620 14.592007 4.000000
36.724620 15.714469 4.000000
36.724620 16.836931 4.000000
36.724620 17.959393 4.000000
36.724620 19.081855 4.000000
36.724620 20.204317 4.000000
36.724620 21.326779 4.000000
36.724620 22.449241 4.000000
36.724620 23.571703 4.000000
36.724620 24.694165 4.000000
36.724620 25.816627 4.000000
36.724620 26.939084 4.000000
36.724620 28.060657 4.000000
37.847083 1.123356 4.000000
37.847083 2.244929 4.000000
37.847083 3.367386 4.000000
37.847083 4.489848 4.000000
37.847083 5.612310 4.000000
37.847083 6.734772 4.000000
37.847083 7.857234 4.000000
37.847083 8.979696 4.000000
37.847083 10.102158 4.000000
37.847083 11.224620 4.000000
37.847083 12.347083 4.000000
37.847083 13.469545 4.000000
37.847083 14.592007 4.000000
37.847083 15.714469 4.000000
37.847083 16.836931 4.000000
37.847083 17.959393 4.000000
37.847083 19.081855 4.000000
37.847083 20.204317 4.000000
37.847083 21.326779 4.000000
37.847083 22.449241 4.000000
37.847083 23.571703 4.000000
37.847083 24.694165 4.000000
37.847083 25.816627 4.000000
37.847083 26.939084 4.000000
37.847083 28.060657 4.000000
38.969545 1.123356 4.000000
38.969545 2.244929 4.000000
38.969545 3.367386 4.000000
38.969545 4.489848 4.000000
38.969545 5.612310 4.000000
38.969545 6.734772 4.000000
38.969545 7.857234 4.000000
38.969545 8.979696 4.000000
38.969545 10.102158 4.000000
38.969545 11.224620 4.000000
38.969545 12.347083 4.000000
38.969545 13.469545 4.000000
38.969545 14.592007 4.000000
38.969545 15.714469 4.000000
38.969545 16.836931 4.000000
38.969545 17.959393 4.000000
38.969545 19.081855 4.000000
38.969545 20.204317 4.000000
38.969545 21.326779 4.000000
38.969545 22.449241 4.000000
38.969545 23.571703 4.000000
38.969545 24.694165 4.000000
38.969545 25.816627 4.000000
38.969545 26.939084 4.000000
38.969545 28.060657 4.000000
40.092007 1.123356 4.000000
40.092007 2.244929 4.000000
40.092007 3.367386 4.000000
40.092007 4.489848 4.000000
40.092007 5.612310 4.000000
40.092007 6.734772 4.000000
40.092007 7.857234 4.000000
40.092007 8.979696 4.000000
40.092007 10.102158 4.000000
40.092007 11.224620 4.000000
40.092007 12.347083 4.000000
40.092007 13.469545 4.000000
40.092007 14.592007 4.000000
40.092007 15.714469 4.000000
40.092007 16.836931 4.000000
40.092007 17.959393 4.000000
40.092007 19.081855 4.000000
40.092007 20.204317 4.000000
40.092007 21.326779 4.000000
40.092007 22.449241 4.000000
40.092007 23.571703 4.000000
40.092007 24.694165 4.000000
40.092007 25.816627 4.000000
40.092007 26.939084 4.000000
40.092007 28.060657 4.000000
41.214469 1.123356 4.000000
41.214469 2.244929 4.000000
41.214469 3.367386 4.000000
41.214469 4.489848 4.000000
41.214469 5.612310 4.000000
41.214469 6.734772 4.000000
41.214469 7.857234 4.000000
41.214469 8.979696 4.000000
41.214469 10.102158 4.000000
41.214469 11.224620 4.000000
41.214469 12.347083 4.000000
41.214469 13.469545 4.000000
41.214469 14.592007 4.000000
41.214469 15.714469 4.000000
41.214469 16.836931 4.000000
41.214469 17.959393 4.000000
41.214469 19.081855 4.000000
41.214469 20.204317 4.000000
41.214469 21.326779 4.000000
41.214469 22.449241 4.000000
[...]
POINT_DATA 1250
SCALARS m double
LOOKUP_TABLE default
1.000000
1.000000
1.000000
1.000000
1.000000
1.000000
1.000000
1.000000
1.000000
1.000000
1.000000
1.000000
1.000000
1.000000
1.000000
1.000000
1.000000
1.000000
1.000000
1.000000
1.000000
1.000000
1.000000
1.000000
1.000000
1.000000
1.000000
1.000000
1.000000
1.000000
1.000000
1.000000
1.000000
1.000000
1.000000
1.000000
1.000000
1.000000
1.000000
1.000000
1.000000
1.000000
1.000000
1.000000
1.000000
1.000000
1.000000
1.000000
1.000000
1.000000
1.000000
1.000000
1.000000
1.000000
1.000000
1.000000
1.000000
1.000000
1.000000
1.000000
1.000000
1.000000
1.000000
1.000000
1.000000
1.000000
1.000000
1.000000
1.000000
1.000000
1.000000
1.000000
1.000000
1.000000
1.000000
1.000000
1.000000
1.000000
1.000000
1.000000
1.000000
1.000000
1.000000
1.000000
1.000000
1.000000
1.000000
1.000000
1.000000
1.000000
1.000000
1.000000
1.000000
1.000000
1.000000
1.000000
1.000000
1.000000
1.000000
1.000000
1.000000
1.000000
1.000000
1.000000
1.000000
1.000000
1.000000
1.000000
1.000000
1.000000
1.000000
1.000000
1.000000
1.000000
1.000000
1.000000
1.000000
1.000000
1.000000
1.000000
1.000000
1.000000
1.000000
1.000000
1.000000
1.000000
1.000000
1.000000
1.000000
1.000000
1.000000
1.000000
1.000000
1.000000
1.000000
1.000000
1.000000
1.000000
1.000000
1.000000
1.000000
1.000000
1.000000
1.000000
1.000000
1.000000
1.000000
1.000000
1.000000
1.000000
1.000000
1.000000
1.000000
1.000000
1.000000
1.000000
1.000000
1.000000
1.000000
1.000000
1.000000
1.000000
1.000000
1.000000
1.000000
1.000000
1.000000
1.000000
1.000000
1.000000
1.000000
1.000000
1.000000
1.000000
1.000000
1.000000
1.000000
1.000000
1.000000
1.000000
1.000000
1.000000
1.000000
1.000000
1.000000
1.000000
1.000000
1.000000
1.000000
1.000000
1.000000
1.000000
1.000000
1.000000
1.000000
1.000000
1.000000
1.000000
1.000000
1.000000
1.000000
1.000000
1.000000
1.000000
1.000000
1.000000
1.000000
1.000000
1.000000
1.000000
1.000000
1.000000
1.000000
1.000000
1.000000
1.000000
1.000000
1.000000
1.000000
1.000000
1.000000
1.000000
1.000000
1.000000
1.000000
1.000000
1.000000
1.000000
1.000000
1.000000
1.000000
1.000000
1.000000
1.000000
1.000000
1.000000
1.000000
1.000000
1.000000
1.000000
1.000000
1.000000
1.000000
1.000000
1.000000
1.000000
1.000000
1.000000
1.000000
1.000000
1.000000
1.000000
1.000000
1.000000
1.000000
1.000000
1.000000
1.000000
1.000000
1.000000
1.000000
1.000000
1.000000
1.000000
1.000000
1.000000
1.000000
1.000000
1.000000
1.000000
1.000000
1.000000
1.000000
1.000000
1.000000
1.000000
1.000000
1.000000
1.000000
1.000000
1.000000
1.000000
1.000000
1.000000
1.000000
1.000000
1.000000
1.000000
1.000000
1.000000
1.000000
1.000000
1.000000
1.000000
1.000000
1.000000
1.000000
1.000000
1.000000
1.000000
1.000000
1.000000
1.000000
1.000000
1.000000
1.000000
1.000000
1.000000
1.000000
1.000000
1.000000
1.000000
1.000000
1.000000
1.000000
1.000000
1.000000
1.000000
1.000000
1.000000
1.000000
1.000000
1.000000
1.000000
1.000000
1.000000
1.000000
1.000000
1.000000
1.000000
1.000000
1.000000
1.000000
1.000000
1.000000
1.000000
1.000000
1.000000
1.000000
1.000000
1.000000
1.000000
1.000000
1.000000
1.000000
1.000000
1.000000
1.000000
1.000000
1.000000
1.000000
1.000000
1.000000
1.000000
1.000000
1.000000
1.000000
1.000000
1.000000
1.000000
1.000000
1.000000
1.000000
1.000000
1.000000
1.000000
1.000000
1.000000
1.000000
1.000000
1.000000
1.000000
1.000000
1.000000
1.000000
1.000000
1.000000
1.000000
1.000000
1.000000
1.000000
1.000000
1.000000
1.000000
1.000000
1.000000
1.000000
1.000000
1.000000
1.000000
1.000000
1.000000
1.000000
1.000000
1.000000
1.000000
1.000000
1.000000
1.000000
1.000000
1.000000
1.000000
1.000000
1.000000
1.000000
1.000000
1.000000
1.000000
1.000000
1.000000
1.000000
1.000000
1.000000
1.000000
1.000000
1.000000
1.000000
1.000000
1.000000
1.000000
1.000000
1.000000
1.000000
1.000000
1.000000
1.000000
1.000000
1.000000
1.000000
1.000000
1.000000
1.000000
1.000000
1.000000
1.000000
1.000000
1.000000
1.000000
1.000000
1.000000
1.000000
1.000000
1.000000
1.000000
1.000000
1.000000
1.000000
1.000000
1.000000
1.000000
1.000000
1.000000
1.000000
1.000000
1.000000
1.000000
1.000000
1.000000
1.000000
1.000000
1.000000
1.000000
1.000000
1.000000
1.000000
1.000000
1.000000
1.000000
1.000000
1.000000
1.000000
1.000000
1.000000
1.000000
1.000000
1.000000
1.000000
1.000000
1.000000
1.000000
1.000000
1.000000
1.000000
1.000000
1.000000
1.000000
1.000000
1.000000
1.000000
1.000000
1.000000
1.000000
1.000000
1.000000
1.000000
1.000000
1.000000
1.000000
1.000000
1.000000
1.000000
1.000000
1.000000
1.000000
1.000000
1.000000
1.000000
1.000000
1.000000
1.000000
1.000000
1.000000
1.000000
1.000000
1.000000
1.000000
1.000000
1.000000
1.000000
1.000000
1.000000
1.000000
1.000000
1.000000
1.000000
1.000000
1.000000
1.000000
1.000000
1.000000
1.000000
1.000000
1.000000
1.000000
1.000000
1.000000
1.000000
1.000000
1.000000
1.000000
1.000000
1.000000
1.000000
1.000000
1.000000
1.000000
1.000000
1.000000
1.000000
1.000000
1.000000
1.000000
1.000000
1.000000
1.000000
1.000000
1.000000
1.000000
1.000000
1.000000
1.000000
1.000000
1.000000
1.000000
1.000000
1.000000
1.000000
1.000000
1.000000
1.000000
1.000000
1.000000
1.000000
1.000000
1.000000
1.000000
1.000000
1.000000
1.000000
1.000000
1.000000
1.000000
1.000000
1.000000
1.000000
1.000000
1.000000
1.000000
1.000000
1.000000
1.000000
1.000000
1.000000
1.000000
1.000000
1.000000
1.000000
1.000000
1.000000
1.000000
1.000000
1.000000
1.000000
1.000000
1.000000
1.000000
1.000000
1.000000
1.000000
1.000000
1.000000
1.000000
1.000000
1.000000
1.000000
1.000000
1.000000
1.000000
1.000000
1.000000
1.000000
1.000000
1.000000
1.000000
1.000000
1.000000
1.000000
1.000000
1.000000
1.000000
1.000000
1.000000
1.000000
1.000000
1.000000
1.000000
1.000000
1.000000
1.000000
1.000000
1.000000
1.000000
1.000000
1.000000
1.000000
1.000000
1.000000
1.000000
1.000000
1.000000
1.000000
1.000000
1.000000
1.000000
1.000000
1.000000
1.000000
1.000000
1.000000
1.000000
1.000000
1.000000
1.000000
1.000000
1.000000
1.000000
1.000000
1.000000
1.000000
1.000000
1.000000
1.000000
1.000000
1.000000
1.000000
1.000000
1.000000
1.000000
1.000000
1.000000
1.000000
1.000000
1.000000
1.000000
1.000000
1.000000
1.000000
1.000000
1.000000
1.000000
1.000000
1.000000
1.000000
1.000000
1.000000
1.000000
1.000000
1.000000
1.000000
1.000000
1.000000
1.000000
1.000000
1.000000
1.000000
1.000000
1.000000
1.000000
1.000000
1.000000
1.000000
1.000000
1.000000
1.000000
1.000000
1.000000
1.000000
1.000000
1.000000
1.000000
1.000000
1.000000
1.000000
1.000000
1.000000
1.000000
1.000000
1.000000
1.000000
1.000000
1.000000
1.000000
1.000000
1.000000
1.000000
1.000000
1.000000
1.000000
1.000000
1.000000
1.000000
1.000000
1.000000
1.000000
1.000000
1.000000
1.000000
1.000000
1.000000
1.000000
1.000000
1.000000
1.000000
1.000000
1.000000
1.000000
1.000000
1.000000
1.000000
1.000000
1.000000
1.000000
1.000000
1.000000
1.000000
1.000000
1.000000
1.000000
1.000000
1.000000
1.000000
1.000000
1.000000
1.000000
1.000000
1.000000
1.000000
1.000000
1.000000
1.000000
1.000000
1.000000
1.000000
1.000000
1.000000
1.000000
1.000000
1.000000
1.000000
1.000000
1.000000
1.000000
1.000000
1.000000
1.000000
1.000000
1.000000
1.000000
1.000000
1.000000
1.000000
1.000000
1.000000
1.000000
1.000000
1.000000
1.000000
1.000000
1.000000
1.000000
1.000000
1.000000
1.000000
1.000000
1.000000
1.000000
1.000000
1.000000
1.000000
1.000000
1.000000
1.000000
1.000000
1.000000
1.000000
1.000000
1.000000
1.000000
1.000000
1.000000
1.000000
1.000000
1.000000
1.000000
1.000000
1.000000
1.000000
1.000000
1.000000
1.000000
1.000000
1.000000
1.000000
1.000000
1.000000
1.000000
1.000000
1.000000
1.000000
1.000000
1.000000
1.000000
1.000000
1.000000
1.000000
1.000000
1.000000
1.000000
1.000000
1.000000
1.000000
1.000000
1.000000
1.000000
1.000000
1.000000
1.000000
1.000000
1.000000
1.000000
1.000000
1.000000
1.000000
1.000000
1.000000
1.000000
1.000000
1.000000
1.000000
1.000000
1.000000
1.000000
1.000000
1.000000
1.000000
1.000000
1.000000
1.000000
1.000000
1.000000
1.000000
1.000000
1.000000
1.000000
1.000000
1.000000
1.000000
1.000000
1.000000
1.000000
1.000000
1.000000
1.000000
1.000000
1.000000
1.000000
1.000000
1.000000
1.000000
1.000000
1.000000
1.000000
1.000000
1.000000
1.000000
1.000000
1.000000
1.000000
1.000000
1.000000
1.000000
1.000000
1.000000
1.000000
1.000000
1.000000
1.000000
1.000000
1.000000
1.000000
1.000000
1.000000
1.000000
1.000000
1.000000
1.000000
1.000000
1.000000
1.000000
1.000000
1.000000
1.000000
1.000000
1.000000
1.000000
1.000000
1.000000
1.000000
1.000000
1.000000
1.000000
1.000000
1.000000
1.000000
1.000000
1.000000
1.000000
1.000000
1.000000
1.000000
1.000000
1.000000
1.000000
1.000000
1.000000
1.000000
1.000000
1.000000
1.000000
1.000000
1.000000
1.000000
1.000000
1.000000
1.000000
1.000000
1.000000
1.000000
1.000000
1.000000
1.000000
1.000000
1.000000
1.000000
1.000000
1.000000
1.000000
1.000000
1.000000
1.000000
1.000000
1.000000
1.000000
1.000000
1.000000
1.000000
1.000000
1.000000
1.000000
1.000000
1.000000
1.000000
1.000000
1.000000
1.000000
1.000000
1.000000
1.000000
1.000000
1.000000
1.000000
1.000000
1.000000
1.000000
1.000000
1.000000
1.000000
1.000000
1.000000
1.000000
1.000000
1.000000
1.000000
1.000000
1.000000
1.000000
1.000000
1.000000
1.000000
1.000000
1.000000
1.000000
1.000000
1.000000
1.000000
1.000000
1.000000
1.000000
1.000000
1.000000
1.000000
1.000000
1.000000
1.000000
1.000000
1.000000
1.000000
1.000000
1.000000
1.000000
1.000000
1.000000
1.000000
1.000000
1.000000
1.000000
1.000000
1.000000
1.000000
1.000000
1.000000
1.000000
1.000000
1.000000
1.000000
1.000000
1.000000
1.000000
1.000000
1.000000
1.000000
1.000000
1.000000
1.000000
1.000000
1.000000
1.000000
1.000000
1.000000
1.000000
1.000000
1.000000
1.000000
1.000000
1.000000
1.000000
1.000000
1.000000
1.000000
1.000000
1.000000
1.000000
1.000000
1.000000
1.000000
1.000000
1.000000
1.000000
1.000000
1.000000
1.000000
1.000000
1.000000
1.000000
1.000000
1.000000
1.000000
1.000000
1.000000
1.000000
1.000000
1.000000
1.000000
1.000000
1.000000
1.000000
1.000000
1.000000
1.000000
1.000000
1.000000
1.000000
1.000000
1.000000
1.000000
1.000000
1.000000
1.000000
1.000000
1.000000
1.000000
1.000000
1.000000
1.000000
1.000000
1.000000
1.000000
1.000000
1.000000
1.000000
1.000000
1.000000
1.000000
1.000000
1.000000
1.000000
1.000000
1.000000
1.000000
1.000000
1.000000
1.000000
1.000000
1.000000
1.000000
1.000000
1.000000
1.000000
1.000000
1.000000
1.000000
1.000000
1.000000
1.000000
1.000000
1.000000
1.000000
1.000000
1.000000
1.000000
1.000000
1.000000
1.000000
1.000000
1.000000
1.000000
1.000000
1.000000
1.000000
1.000000
1.000000
1.000000
1.000000
1.000000
1.000000
1.000000
1.000000
1.000000
1.000000
1.000000
1.000000
1.000000
1.000000
1.000000
1.000000
1.000000
1.000000
1.000000
1.000000
1.000000
1.000000
1.000000
1.000000
1.000000
1.000000
1.000000
1.000000
1.000000
1.000000
1.000000
1.000000
1.000000
1.000000
1.000000
1.000000
1.000000
1.000000
1.000000
1.000000
1.000000
1.000000
1.000000
1.000000
1.000000
1.000000
1.000000
1.000000
1.000000
1.000000
1.000000
1.000000
1.000000
1.000000
1.000000
1.000000
1.000000
1.000000
1.000000
1.000000
1.000000
1.000000
1.000000
1.000000
1.000000
1.000000
1.000000
1.000000
1.000000
1.000000
1.000000
VECTORS v double
9.890059 1.433967 0.000000
-9.627549 2.489943 0.000000
-10.005739 -0.000756 0.000000
-10.005730 -0.000001 0.000000
-10.005730 0.000000 0.000000
-10.005730 0.000000 0.000000
-10.005730 -0.000000 0.000000
-10.005730 -0.000000 0.000000
-10.005730 0.000000 0.000000
-10.005730 -0.000000 0.000000
-10.005730 -0.000000 0.000000
-10.005730 0.000000 0.000000
-10.005730 -0.000000 0.000000
-10.005730 -0.000000 0.000000
-10.005730 -0.000000 0.000000
-10.005730 0.000000 0.000000
-10.005730 -0.000000 0.000000
-10.005730 -0.000000 0.000000
-10.005730 0.000000 0.000000
-10.005730 -0.000000 0.000000
-10.005730 -0.000000 0.000000
-10.005730 0.000001 0.000000
-10.005739 0.000756 0.000000
-9.627549 -2.489942 0.000000
9.890059 -1.433967 0.000000
3.557700 -9.407824 0.000000
9.665111 -2.945286 0.000000
10.006868 0.000849 0.000000
10.006869 0.000001 0.000000
10.006869 -0.000000 0.000000
10.006869 0.000000 0.000000
10.006869 -0.000000 0.000000
10.006869 -0.000000 0.000000
10.006869 0.000000 0.000000
10.006869 -0.000000 0.000000
10.006869 0.000000 0.000000
10.006869 0.000000 0.000000
10.006869 -0.000000 0.000000
10.006869 -0.000000 0.000000
10.006869 -0.000000 0.000000
10.006869 0.000000 0.000000
10.006869 -0.000000 0.000000
10.006869 -0.000000 0.000000
10.006869 0.000000 0.000000
10.006869 -0.000000 0.000000
10.006869 0.000000 0.000000
10.006869 -0.000001 0.000000
10.006868 -0.000850 0.000000
9.665111 2.945285 0.000000
3.557700 9.407824 0.000000
-3.591805 9.365993 0.000000
-9.343288 3.692856 0.000000
-10.004615 -0.001075 0.000000
-10.004607 -0.000001 0.000000
-10.004608 0.000000 0.000000
-10.004608 -0.000000 0.000000
-10.004608 -0.000000 0.000000
-10.004608 -0.000000 0.000000
-10.004608 0.000000 0.000000
-10.004608 -0.000000 0.000000
-10.004608 0.000000 0.000000
-10.004608 0.000000 0.000000
-10.004608 -0.000000 0.000000
-10.004608 -0.000000 0.000000
-10.004608 -0.000000 0.000000
-10.004608 0.000000 0.000000
-10.004608 -0.000000 0.000000
-10.004608 -0.000000 0.000000
-10.004608 0.000000 0.000000
-10.004608 0.000000 0.000000
-10.004608 -0.000000 0.000000
-10.004607 0.000002 0.000000
-10.004615 0.001076 0.000000
-9.343288 -3.692855 0.000000
-3.591805 -9.365993 0.000000
-6.533211 -8.150685 0.000000
9.337391 -3.481958 0.000000
10.007688 0.000894 0.000000
10.007708 0.000001 0.000000
10.007708 -0.000000 0.000000
10.007708 0.000000 0.000000
10.007708 -0.000000 0.000000
10.007708 -0.000000 0.000000
10.007708 0.000000 0.000000
10.007708 -0.000000 0.000000
10.007708 0.000000 0.000000
10.007708 0.000000 0.000000
10.007708 -0.000000 0.000000
10.007708 -0.000000 0.000000
10.007708 -0.000000 0.000000
10.007708 0.000000 0.000000
10.007708 -0.000000 0.000000
10.007708 -0.000000 0.000000
10.007708 0.000000 0.000000
10.007708 -0.000000 0.000000
10.007708 0.000000 0.000000
10.007708 -0.000001 0.000000
10.007688 -0.000895 0.000000
9.337392 3.481958 0.000000
-6.533211 8.150685 0.000000
6.447773 7.008938 0.000000
-9.933361 1.263277 0.000000
-10.003843 -0.000292 0.000000
-10.003843 -0.000000 0.000000
-10.003843 -0.000000 0.000000
-10.003843 -0.000000 0.000000
-10.003843 -0.000000 0.000000
-10.003843 -0.000000 0.000000
-10.003843 0.000000 0.000000
-10.003843 -0.000000 0.000000
-10.003843 0.000000 0.000000
-10.003843 0.000000 0.000000
-10.003843 -0.000000 0.000000
-10.003843 -0.000000 0.000000
-10.003843 -0.000000 0.000000
-10.003843 0.000000 0.000000
-10.003843 -0.000000 0.000000
-10.003843 -0.000000 0.000000
-10.003843 0.000000 0.000000
-10.003843 0.000000 0.000000
-10.003843 0.000000 0.000000
-10.003843 0.000000 0.000000
-10.003843 0.000292 0.000000
-9.933361 -1.263276 0.000000
6.447773 -7.008938 0.000000
-9.972328 -1.057423 0.000000
9.935056 -1.097139 0.000000
10.008039 0.000217 0.000000
10.008045 0.000000 0.000000
10.008045 0.000000 0.000000
10.008045 0.000000 0.000000
10.008045 -0.000000 0.000000
10.008045 -0.000000 0.000000
10.008045 0.000000 0.000000
10.008045 -0.000000 0.000000
10.008045 -0.000000 0.000000
10.008045 0.000000 0.000000
10.008045 -0.000000 0.000000
10.008045 -0.000000 0.000000
10.008045 -0.000000 0.000000
10.008045 0.000000 0.000000
10.008045 -0.000000 0.000000
10.008045 -0.000000 0.000000
10.008045 0.000000 0.000000
10.008045 -0.000000 0.000000
10.008045 -0.000000 0.000000
10.008045 -0.000000 0.000000
10.008039 -0.000217 0.000000
9.935056 1.097139 0.000000
-9.972328 1.057423 0.000000
-9.049499 4.729279 0.000000
-10.002967 0.125146 0.000000
-10.003673 -0.000021 0.000000
-10.003673 0.000000 0.000000
-10.003673 -0.000000 0.000000
-10.003673 -0.000000 0.000000
-10.003673 -0.000000 0.000000
-10.003673 -0.000000 0.000000
-10.003673 0.000000 0.000000
-10.003673 -0.000000 0.000000
-10.003673 -0.000000 0.000000
-10.003673 0.000000 0.000000
-10.003673 -0.000000 0.000000
-10.003673 -0.000000 0.000000
-10.003673 -0.000000 0.000000
-10.003673 0.000000 0.000000
-10.003673 -0.000000 0.000000
-10.003673 -0.000000 0.000000
-10.003673 0.000000 0.000000
-10.003673 0.000000 0.000000
-10.003673 0.000000 0.000000
-10.003673 -0.000000 0.000000
-10.003673 0.000021 0.000000
-10.002967 -0.125146 0.000000
-9.049499 -4.729279 0.000000
9.003068 -3.825328 0.000000
10.005891 -0.102287 0.000000
10.006599 0.000015 0.000000
10.006600 0.000000 0.000000
10.006600 0.000000 0.000000
10.006600 -0.000000 0.000000
10.006600 -0.000000 0.000000
10.006600 -0.000000 0.000000
10.006600 0.000000 0.000000
10.006600 -0.000000 0.000000
10.006600 -0.000000 0.000000
10.006600 0.000000 0.000000
10.006600 -0.000000 0.000000
10.006600 -0.000000 0.000000
10.006600 -0.000000 0.000000
10.006600 0.000000 0.000000
10.006600 -0.000000 0.000000
10.006600 -0.000000 0.000000
10.006600 0.000000 0.000000
10.006600 0.000000 0.000000
10.006600 -0.000000 0.000000
10.006600 -0.000000 0.000000
10.006599 -0.000015 0.000000
10.005891 0.102287 0.000000
9.003068 3.825328 0.000000
-10.002291 0.003753 0.000000
-10.003216 0.000019 0.000000
-10.003221 0.000000 0.000000
-10.003221 0.000000 0.000000
-10.003221 -0.000000 0.000000
-10.003221 0.000000 0.000000
-10.003221 -0.000000 0.000000
-10.003221 -0.000000 0.000000
-10.003221 0.000000 0.000000
-10.003221 -0.000000 0.000000
-10.003221 -0.000000 0.000000
-10.003221 0.000000 0.000000
-10.003221 -0.000000 0.000000
-10.003221 -0.000000 0.000000
-10.003221 -0.000000 0.000000
-10.003221 0.000000 0.000000
-10.003221 -0.000000 0.000000
-10.003221 -0.000000 0.000000
-10.003221 0.000000 0.000000
-10.003221 0.000000 0.000000
-10.003221 0.000000 0.000000
-10.003221 -0.000000 0.000000
-10.003221 -0.000000 0.000000
-10.003216 -0.000019 0.000000
-10.002291 -0.003753 0.000000
-10.000005 0.003978 0.000000
-10.000007 0.000021 0.000000
-10.000007 -0.000000 0.000000
-10.000007 -0.000000 0.000000
-10.000007 0.000000 0.000000
-10.000007 0.000000 0.000000
-10.000007 -0.000000 0.000000
-10.000007 -0.000000 0.000000
-10.000007 0.000000 0.000000
-10.000007 -0.000000 0.000000
-10.000007 -0.000000 0.000000
-10.000007 0.000000 0.000000
-10.000007 -0.000000 0.000000
-10.000007 -0.000000 0.000000
-10.000007 -0.000000 0.000000
-10.000007 0.000000 0.000000
-10.000007 -0.000000 0.000000
-10.000007 -0.000000 0.000000
-10.000007 0.000000 0.000000
-10.000007 0.000000 0.000000
-10.000007 -0.000000 0.000000
-10.000007 0.000000 0.000000
-10.000007 0.000000 0.000000
-10.000007 -0.000021 0.000000
-10.000005 -0.003978 0.000000
-10.000000 0.003977 0.000000
-10.000000 0.000021 0.000000
-10.000000 -0.000000 0.000000
-10.000000 -0.000000 0.000000
-10.000000 0.000000 0.000000
-10.000000 0.000000 0.000000
-10.000000 -0.000000 0.000000
-10.000000 -0.000000 0.000000
-10.000000 0.000000 0.000000
-10.000000 -0.000000 0.000000
-10.000000 -0.000000 0.000000
-10.000000 0.000000 0.000000
-10.000000 -0.000000 0.000000
-10.000000 -0.000000 0.000000
-10.000000 -0.000000 0.000000
-10.000000 0.000000 0.000000
-10.000000 -0.000000 0.000000
-10.000000 -0.000000 0.000000
-10.000000 0.000000 0.000000
-10.000000 0.000000 0.000000
-10.000000 -0.000000 0.000000
-10.000000 0.000000 0.000000
-10.000000 0.000000 0.000000
-10.000000 -0.000021 0.000000
-10.000000 -0.003977 0.000000
-10.000000 0.003977 0.000000
-10.000000 0.000021 0.000000
-10.000000 -0.000000 0.000000
-10.000000 -0.000000 0.000000
-10.000000 0.000000 0.000000
-10.000000 0.000000 0.000000
-10.000000 -0.000000 0.000000
-10.000000 -0.000000 0.000000
-10.000000 0.000000 0.000000
-10.000000 -0.000000 0.000000
-10.000000 0.000000 0.000000
-10.000000 0.000000 0.000000
-10.000000 -0.000000 0.000000
-10.000000 -0.000000 0.000000
-10.000000 -0.000000 0.000000
-10.000000 0.000000 0.000000
-10.000000 -0.000000 0.000000
-10.000000 -0.000000 0.000000
-10.000000 0.000000 0.000000
-10.000000 0.000000 0.000000
-10.000000 -0.000000 0.000000
-10.000000 0.000000 0.000000