# vtk DataFile Version 4.0
hesp visualization file
ASCII
DATASET UNSTRUCTURED_GRID
POINTS 1250 double
34.416595 2.166259 4.000000
30.309486 0.220388 4.000000
34.765538 4.734297 4.000000
33.526656 7.683253 4.000000
31.540520 5.478489 4.000000
30.635038 10.897230 4.000000
32.543731 11.528075 4.000000
31.746852 11.021309 4.000000
30.284368 12.467833 4.000000
32.076764 11.257456 4.000000
31.360177 12.290798 4.000000
30.431211 13.580045 4.000000
30.445163 14.591982 4.000000
30.430027 15.588449 4.000000
31.360851 16.885576 4.000000
30.017552 17.271671 4.000000
31.077391 19.627171 4.000000
30.698908 17.644873 4.000000
30.245397 21.293082 4.000000
30.339695 19.419355 4.000000
33.717794 24.235976 4.000000
31.109917 27.991830 4.000000
33.968858 23.859948 4.000000
32.335655 29.804481 4.000000
31.835832 27.816978 4.000000
30.837772 -11.526719 4.000000
33.018007 0.757756 4.000000
32.485468 -3.289913 4.000000
30.489092 3.560441 4.000000
30.159670 6.796891 4.000000
30.685350 7.018471 4.000000
30.376610 8.035720 4.000000
31.587846 11.842404 4.000000
32.580141 12.829598 4.000000
30.975417 11.904954 4.000000
31.178494 12.959256 4.000000
31.484565 13.158603 4.000000
31.568077 14.591837 4.000000
31.555600 15.885638 4.000000
32.197002 16.298145 4.000000
31.163491 18.046038 4.000000
33.007374 17.755244 4.000000
32.655365 16.822115 4.000000
31.997948 18.817858 4.000000
30.871872 23.987370 4.000000
30.842197 25.471576 4.000000
31.979759 23.702996 4.000000
32.493279 32.467247 4.000000
31.675973 26.336756 4.000000
30.837772 40.710732 4.000000
31.869182 -2.796836 4.000000
33.327963 3.722910 4.000000
32.975938 3.408494 4.000000
31.013836 8.432579 4.000000
34.595482 5.250527 4.000000
30.927930 8.773819 4.000000
33.405124 10.201622 4.000000
30.144009 6.092481 4.000000
30.564667 9.504141 4.000000
34.021638 12.293025 4.000000
33.545966 12.977716 4.000000
30.803044 13.950759 4.000000
32.865773 14.242691 4.000000
32.772965 15.152056 4.000000
31.930619 15.784534 4.000000
32.650388 17.764565 4.000000
30.555328 19.226625 4.000000
32.567562 20.981789 4.000000
33.927468 17.861766 4.000000
31.153420 18.414659 4.000000
31.380189 25.303915 4.000000
33.695148 20.214254 4.000000
31.579051 22.210259 4.000000
33.822709 26.008067 4.000000
31.871551 31.973996 4.000000
31.463860 -2.966027 4.000000
32.769357 -6.702270 4.000000
31.484299 4.898283 4.000000
35.171549 3.053176 4.000000
31.365294 2.994905 4.000000
32.685567 4.124766 4.000000
31.321573 9.648391 4.000000
31.737381 10.240575 4.000000
34.038286 10.650488 4.000000
33.465992 9.826630 4.000000
34.912393 14.158988 4.000000
33.131599 14.401228 4.000000
33.810863 14.597830 4.000000
32.280961 15.933399 4.000000
34.196263 15.158031 4.000000
32.160481 17.415659 4.000000
34.729727 18.511233 4.000000
30.930306 17.038158 4.000000
30.698303 20.736573 4.000000
30.141144 19.894748 4.000000
36.123069 24.893984 4.000000
34.704658 27.171442 4.000000
30.883475 24.674285 4.000000
32.769360 35.886283 4.000000
31.463066 32.150888 4.000000
33.563014 2.091334 4.000000
30.566178 4.890167 4.000000
32.371320 -2.369574 4.000000
34.841989 7.274035 4.000000
30.260639 9.172152 4.000000
30.382283 9.967441 4.000000
32.674599 8.059483 4.000000
30.128449 8.476196 4.000000
32.515425 8.318251 4.000000
32.056582 11.726164 4.000000
31.581892 14.045229 4.000000
34.671941 12.521783 4.000000
34.240148 16.541472 4.000000
33.479063 15.811559 4.000000
31.940594 14.464828 4.000000
33.689774 15.126578 4.000000
32.251144 20.133443 4.000000
31.399791 19.671003 4.000000
32.227207 23.563269 4.000000
31.651710 21.380284 4.000000
30.326985 22.405914 4.000000
35.303906 24.104521 4.000000
33.577765 29.776163 4.000000
33.462689 24.980105 4.000000
31.609095 27.627630 4.000000
30.459714 -3.509874 4.000000
31.873246 -5.669434 4.000000
36.663695 7.376563 4.000000
31.158306 5.743315 4.000000
32.102625 6.970339 4.000000
31.053347 5.447905 4.000000
30.823925 7.677947 4.000000
32.032847 11.003248 4.000000
32.367421 10.565003 4.000000
34.347439 12.044559 4.000000
31.790841 13.424266 4.000000
35.115742 13.568556 4.000000
33.073496 13.951520 4.000000
33.197092 16.845269 4.000000
34.278405 12.893539 4.000000
34.695564 16.002634 4.000000
33.104602 18.593724 4.000000
33.618962 20.921070 4.000000
31.472781 20.701739 4.000000
30.062346 22.043637 4.000000
33.562360 19.649687 4.000000
30.942598 19.068143 4.000000
37.508195 24.531234 4.000000
31.873533 34.853528 4.000000
30.459708 32.693894 4.000000
30.137224 0.625845 4.000000
36.632780 1.537652 4.000000
32.143391 -0.452429 4.000000
34.299690 3.973572 4.000000
31.244377 10.707748 4.000000
31.251232 7.545740 4.000000
34.969399 8.868547 4.000000
35.806455 10.594491 4.000000
32.112923 7.978192 4.000000
32.865512 12.578380 4.000000
31.921528 12.135902 4.000000
35.306545 14.270402 4.000000
33.577375 13.789829 4.000000
33.016789 14.678470 4.000000
33.302814 19.629609 4.000000
31.919857 17.644043 4.000000
32.048870 22.740074 4.000000
35.630632 20.865662 4.000000
33.186888 23.537952 4.000000
31.172603 22.101943 4.000000
31.525946 24.051647 4.000000
34.083044 20.576787 4.000000
31.438247 26.247494 4.000000
35.038217 26.734894 4.000000
31.274651 28.597056 4.000000
39.341475 -7.614054 4.000000
34.157696 0.622732 4.000000
38.144642 1.674001 4.000000
31.949777 7.421013 4.000000
33.403589 5.997699 4.000000
32.685454 5.621838 4.000000
34.350390 11.687255 4.000000
37.543237 9.337465 4.000000
31.696422 9.753610 4.000000
33.572502 12.077888 4.000000
34.123949 11.879932 4.000000
35.278477 12.934275 4.000000
35.791130 16.058406 4.000000
34.809359 16.886449 4.000000
37.321422 17.031126 4.000000
34.156935 16.994309 4.000000
34.996816 19.742254 4.000000
37.751206 19.330955 4.000000
35.975347 18.745456 4.000000
32.304274 21.286297 4.000000
35.590381 19.795651 4.000000
34.878563 22.671079 4.000000
35.868354 28.958795 4.000000
35.002525 22.286722 4.000000
39.341475 36.798068 4.000000
31.597200 1.823888 4.000000
30.188471 1.320104 4.000000
35.842533 -1.112931 4.000000
37.336197 6.636104 4.000000
33.003568 7.666602 4.000000
35.226688 6.581341 4.000000
32.519190 10.097611 4.000000
36.750332 10.507584 4.000000
35.118721 10.435892 4.000000
35.327366 11.053580 4.000000
35.639916 11.357341 4.000000
35.951461 14.666000 4.000000
35.560391 14.113819 4.000000
34.526329 15.536684 4.000000
33.798066 17.404426 4.000000
35.247520 18.160488 4.000000
34.703638 18.106144 4.000000
35.772212 18.200048 4.000000
32.540725 19.925705 4.000000
32.852346 20.551857 4.000000
33.304995 21.083814 4.000000
36.447946 25.884428 4.000000
37.351244 30.237404 4.000000
30.902795 28.770707 4.000000
33.146239 29.067822 4.000000
32.546936 0.658365 4.000000
33.374986 -4.288203 4.000000
34.787544 1.315199 4.000000
35.086938 4.259031 4.000000
33.974375 8.965972 4.000000
34.725248 5.564725 4.000000
37.390976 8.999538 4.000000
36.044045 10.796445 4.000000
35.067647 13.189778 4.000000
37.364534 12.403872 4.000000
35.409564 13.243547 4.000000
36.121303 13.668219 4.000000
35.752952 15.127828 4.000000
37.183408 15.214172 4.000000
34.494014 16.822280 4.000000
36.096428 14.932118 4.000000
35.965239 16.317667 4.000000
32.778296 19.912045 4.000000
34.863667 20.175478 4.000000
36.080746 23.377190 4.000000
35.930552 22.983226 4.000000
35.857004 25.146388 4.000000
34.733774 27.866554 4.000000
33.374987 33.472213 4.000000
32.535512 28.526253 4.000000
32.216694 -0.745579 4.000000
36.344094 0.323361 4.000000
36.481193 2.779133 4.000000
34.450731 2.783430 4.000000
37.393924 5.125344 4.000000
37.466397 8.477215 4.000000
34.449069 7.960520 4.000000
35.335437 12.397920 4.000000
35.954631 9.503432 4.000000
37.808495 14.378829 4.000000
35.522815 12.677100 4.000000
36.405285 13.349637 4.000000
37.288122 13.639828 4.000000
37.026273 15.008482 4.000000
36.775538 17.480446 4.000000
37.450134 15.196868 4.000000
35.520097 18.401794 4.000000
35.486539 16.704085 4.000000
33.942606 20.338314 4.000000
35.924161 20.623971 4.000000
39.515172 22.993813 4.000000
32.782354 27.635557 4.000000
35.183763 23.205585 4.000000
34.791133 25.634193 4.000000
31.689114 29.861442 4.000000
30.974150 -1.752499 4.000000
33.406007 -0.940389 4.000000
38.339680 9.825022 4.000000
33.537713 3.311997 4.000000
37.913684 7.097519 4.000000
38.938316 7.805213 4.000000
37.158013 8.772818 4.000000
36.312590 7.785181 4.000000
36.335833 9.370827 4.000000
36.585359 11.208634 4.000000
38.243279 13.061451 4.000000
38.185729 13.555534 4.000000
37.748964 15.164238 4.000000
36.596631 15.708022 4.000000
36.732663 16.126471 4.000000
35.677857 17.955814 4.000000
37.032950 18.296506 4.000000
37.073982 19.672268 4.000000
38.693523 20.695606 4.000000
36.891314 23.945050 4.000000
36.232683 25.362050 4.000000
33.840270 26.576875 4.000000
38.129978 20.174985 4.000000
33.420025 30.151713 4.000000
30.973782 30.938606 4.000000
31.287428 1.126985 4.000000
33.086778 -0.980023 4.000000
39.579439 3.057296 4.000000
40.573015 5.270028 4.000000
39.037745 6.183820 4.000000
35.747229 6.221454 4.000000
37.760380 9.610992 4.000000
35.885991 8.979071 4.000000
37.747242 11.474196 4.000000
37.001839 11.283948 4.000000
38.821165 11.058544 4.000000
38.047517 13.870823 4.000000
38.120905 15.019758 4.000000
38.584007 15.584881 4.000000
38.401923 18.092428 4.000000
36.803347 17.960159 4.000000
36.800037 18.987279 4.000000
36.880968 20.001879 4.000000
38.041008 19.765023 4.000000
36.414038 24.206794 4.000000
38.180771 21.807714 4.000000
36.353862 22.022309 4.000000
38.378501 27.855159 4.000000
33.143787 30.215353 4.000000
31.123101 28.963044 4.000000
33.013483 -0.248617 4.000000
35.686936 2.013069 4.000000
35.022512 0.364418 4.000000
35.890758 4.610348 4.000000
36.838457 4.415167 4.000000
39.055209 5.773882 4.000000
37.544512 7.316981 4.000000
37.814729 8.886529 4.000000
38.006525 9.882366 4.000000
37.997012 11.211245 4.000000
37.923824 12.344978 4.000000
39.702513 12.950852 4.000000
38.844059 14.592021 4.000000
38.843651 15.712203 4.000000
40.285292 15.977072 4.000000
37.816081 18.061178 4.000000
39.509861 18.619204 4.000000
37.074253 19.057818 4.000000
37.803934 20.630557 4.000000
[...]
POINT_DATA 1250
SCALARS m double
LOOKUP_TABLE default
1.000000
1.000000
1.000000
1.000000
1.000000
1.000000
1.000000
1.000000
1.000000
1.000000
1.000000
1.000000
1.000000
1.000000
1.000000
1.000000
1.000000
1.000000
1.000000
1.000000
1.000000
1.000000
1.000000
1.000000
1.000000
1.000000
1.000000
1.000000
1.000000
1.000000
1.000000
1.000000
1.000000
1.000000
1.000000
1.000000
1.000000
1.000000
1.000000
1.000000
1.000000
1.000000
1.000000
1.000000
1.000000
1.000000
1.000000
1.000000
1.000000
1.000000
1.000000
1.000000
1.000000
1.000000
1.000000
1.000000
1.000000
1.000000
1.000000
1.000000
1.000000
1.000000
1.000000
1.000000
1.000000
1.000000
1.000000
1.000000
1.000000
1.000000
1.000000
1.000000
1.000000
1.000000
1.000000
1.000000
1.000000
1.000000
1.000000
1.000000
1.000000
1.000000
1.000000
1.000000
1.000000
1.000000
1.000000
1.000000
1.000000
1.000000
1.000000
1.000000
1.000000
1.000000
1.000000
1.000000
1.000000
1.000000
1.000000
1.000000
1.000000
1.000000
1.000000
1.000000
1.000000
1.000000
1.000000
1.000000
1.000000
1.000000
1.000000
1.000000
1.000000
1.000000
1.000000
1.000000
1.000000
1.000000
1.000000
1.000000
1.000000
1.000000
1.000000
1.000000
1.000000
1.000000
1.000000
1.000000
1.000000
1.000000
1.000000
1.000000
1.000000
1.000000
1.000000
1.000000
1.000000
1.000000
1.000000
1.000000
1.000000
1.000000
1.000000
1.000000
1.000000
1.000000
1.000000
1.000000
1.000000
1.000000
1.000000
1.000000
1.000000
1.000000
1.000000
1.000000
1.000000
1.000000
1.000000
1.000000
1.000000
1.000000
1.000000
1.000000
1.000000
1.000000
1.000000
1.000000
1.000000
1.000000
1.000000
1.000000
1.000000
1.000000
1.000000
1.000000
1.000000
1.000000
1.000000
1.000000
1.000000
1.000000
1.000000
1.000000
1.000000
1.000000
1.000000
1.000000
1.000000
1.000000
1.000000
1.000000
1.000000
1.000000
1.000000
1.000000
1.000000
1.000000
1.000000
1.000000
1.000000
1.000000
1.000000
1.000000
1.000000
1.000000
1.000000
1.000000
1.000000
1.000000
1.000000
1.000000
1.000000
1.000000
1.000000
1.000000
1.000000
1.000000
1.000000
1.000000
1.000000
1.000000
1.000000
1.000000
1.000000
1.000000
1.000000
1.000000
1.000000
1.000000
1.000000
1.000000
1.000000
1.000000
1.000000
1.000000
1.000000
1.000000
1.000000
1.000000
1.000000
1.000000
1.000000
1.000000
1.000000
1.000000
1.000000
1.000000
1.000000
1.000000
1.000000
1.000000
1.000000
1.000000
1.000000
1.000000
1.000000
1.000000
1.000000
1.000000
1.000000
1.000000
1.000000
1.000000
1.000000
1.000000
1.000000
1.000000
1.000000
1.000000
1.000000
1.000000
1.000000
1.000000
1.000000
1.000000
1.000000
1.000000
1.000000
1.000000
1.000000
1.000000
1.000000
1.000000
1.000000
1.000000
1.000000
1.000000
1.000000
1.000000
1.000000
1.000000
1.000000
1.000000
1.000000
1.000000
1.000000
1.000000
1.000000
1.000000
1.000000
1.000000
1.000000
1.000000
1.000000
1.000000
1.000000
1.000000
1.000000
1.000000
1.000000
1.000000
1.000000
1.000000
1.000000
1.000000
1.000000
1.000000
1.000000
1.000000
1.000000
1.000000
1.000000
1.000000
1.000000
1.000000
1.000000
1.000000
1.000000
1.000000
1.000000
1.000000
1.000000
1.000000
1.000000
1.000000
1.000000
1.000000
1.000000
1.000000
1.000000
1.000000
1.000000
1.000000
1.000000
1.000000
1.000000
1.000000
1.000000
1.000000
1.000000
1.000000
1.000000
1.000000
1.000000
1.000000
1.000000
1.000000
1.000000
1.000000
1.000000
1.000000
1.000000
1.000000
1.000000
1.000000
1.000000
1.000000
1.000000
1.000000
1.000000
1.000000
1.000000
1.000000
1.000000
1.000000
1.000000
1.000000
1.000000
1.000000
1.000000
1.000000
1.000000
1.000000
1.000000
1.000000
1.000000
1.000000
1.000000
1.000000
1.000000
1.000000
1.000000
1.000000
1.000000
1.000000
1.000000
1.000000
1.000000
1.000000
1.000000
1.000000
1.000000
1.000000
1.000000
1.000000
1.000000
1.000000
1.000000
1.000000
1.000000
1.000000
1.000000
1.000000
1.000000
1.000000
1.000000
1.000000
1.000000
1.000000
1.000000
1.000000
1.000000
1.000000
1.000000
1.000000
1.000000
1.000000
1.000000
1.000000
1.000000
1.000000
1.000000
1.000000
1.000000
1.000000
1.000000
1.000000
1.000000
1.000000
1.000000
1.000000
1.000000
1.000000
1.000000
1.000000
1.000000
1.000000
1.000000
1.000000
1.000000
1.000000
1.000000
1.000000
1.000000
1.000000
1.000000
1.000000
1.000000
1.000000
1.000000
1.000000
1.000000
1.000000
1.000000
1.000000
1.000000
1.000000
1.000000
1.000000
1.000000
1.000000
1.000000
1.000000
1.000000
1.000000
1.000000
1.000000
1.000000
1.000000
1.000000
1.000000
1.000000
1.000000
1.000000
1.000000
1.000000
1.000000
1.000000
1.000000
1.000000
1.000000
1.000000
1.000000
1.000000
1.000000
1.000000
1.000000
1.000000
1.000000
1.000000
1.000000
1.000000
1.000000
1.000000
1.000000
1.000000
1.000000
1.000000
1.000000
1.000000
1.000000
1.000000
1.000000
1.000000
1.000000
1.000000
1.000000
1.000000
1.000000
1.000000
1.000000
1.000000
1.000000
1.000000
1.000000
1.000000
1.000000
1.000000
1.000000
1.000000
1.000000
1.000000
1.000000
1.000000
1.000000
1.000000
1.000000
1.000000
1.000000
1.000000
1.000000
1.000000
1.000000
1.000000
1.000000
1.000000
1.000000
1.000000
1.000000
1.000000
1.000000
1.000000
1.000000
1.000000
1.000000
1.000000
1.000000
1.000000
1.000000
1.000000
1.000000
1.000000
1.000000
1.000000
1.000000
1.000000
1.000000
1.000000
1.000000
1.000000
1.000000
1.000000
1.000000
1.000000
1.000000
1.000000
1.000000
1.000000
1.000000
1.000000
1.000000
1.000000
1.000000
1.000000
1.000000
1.000000
1.000000
1.000000
1.000000
1.000000
1.000000
1.000000
1.000000
1.000000
1.000000
1.000000
1.000000
1.000000
1.000000
1.000000
1.000000
1.000000
1.000000
1.000000
1.000000
1.000000
1.000000
1.000000
1.000000
1.000000
1.000000
1.000000
1.000000
1.000000
1.000000
1.000000
1.000000
1.000000
1.000000
1.000000
1.000000
1.000000
1.000000
1.000000
1.000000
1.000000
1.000000
1.000000
1.000000
1.000000
1.000000
1.000000
1.000000
1.000000
1.000000
1.000000
1.000000
1.000000
1.000000
1.000000
1.000000
1.000000
1.000000
1.000000
1.000000
1.000000
1.000000
1.000000
1.000000
1.000000
1.000000
1.000000
1.000000
1.000000
1.000000
1.000000
1.000000
1.000000
1.000000
1.000000
1.000000
1.000000
1.000000
1.000000
1.000000
1.000000
1.000000
1.000000
1.000000
1.000000
1.000000
1.000000
1.000000
1.000000
1.000000
1.000000
1.000000
1.000000
1.000000
1.000000
1.000000
1.000000
1.000000
1.000000
1.000000
1.000000
1.000000
1.000000
1.000000
1.000000
1.000000
1.000000
1.000000
1.000000
1.000000
1.000000
1.000000
1.000000
1.000000
1.000000
1.000000
1.000000
1.000000
1.000000
1.000000
1.000000
1.000000
1.000000
1.000000
1.000000
1.000000
1.000000
1.000000
1.000000
1.000000
1.000000
1.000000
1.000000
1.000000
1.000000
1.000000
1.000000
1.000000
1.000000
1.000000
1.000000
1.000000
1.000000
1.000000
1.000000
1.000000
1.000000
1.000000
1.000000
1.000000
1.000000
1.000000
1.000000
1.000000
1.000000
1.000000
1.000000
1.000000
1.000000
1.000000
1.000000
1.000000
1.000000
1.000000
1.000000
1.000000
1.000000
1.000000
1.000000
1.000000
1.000000
1.000000
1.000000
1.000000
1.000000
1.000000
1.000000
1.000000
1.000000
1.000000
1.000000
1.000000
1.000000
1.000000
1.000000
1.000000
1.000000
1.000000
1.000000
1.000000
1.000000
1.000000
1.000000
1.000000
1.000000
1.000000
1.000000
1.000000
1.000000
1.000000
1.000000
1.000000
1.000000
1.000000
1.000000
1.000000
1.000000
1.000000
1.000000
1.000000
1.000000
1.000000
1.000000
1.000000
1.000000
1.000000
1.000000
1.000000
1.000000
1.000000
1.000000
1.000000
1.000000
1.000000
1.000000
1.000000
1.000000
1.000000
1.000000
1.000000
1.000000
1.000000
1.000000
1.000000
1.000000
1.000000
1.000000
1.000000
1.000000
1.000000
1.000000
1.000000
1.000000
1.000000
1.000000
1.000000
1.000000
1.000000
1.000000
1.000000
1.000000
1.000000
1.000000
1.000000
1.000000
1.000000
1.000000
1.000000
1.000000
1.000000
1.000000
1.000000
1.000000
1.000000
1.000000
1.000000
1.000000
1.000000
1.000000
1.000000
1.000000
1.000000
1.000000
1.000000
1.000000
1.000000
1.000000
1.000000
1.000000
1.000000
1.000000
1.000000
1.000000
1.000000
1.000000
1.000000
1.000000
1.000000
1.000000
1.000000
1.000000
1.000000
1.000000
1.000000
1.000000
1.000000
1.000000
1.000000
1.000000
1.000000
1.000000
1.000000
1.000000
1.000000
1.000000
1.000000
1.000000
1.000000
1.000000
1.000000
1.000000
1.000000
1.000000
1.000000
1.000000
1.000000
1.000000
1.000000
1.000000
1.000000
1.000000
1.000000
1.000000
1.000000
1.000000
1.000000
1.000000
1.000000
1.000000
1.000000
1.000000
1.000000
1.000000
1.000000
1.000000
1.000000
1.000000
1.000000
1.000000
1.000000
1.000000
1.000000
1.000000
1.000000
1.000000
1.000000
1.000000
1.000000
1.000000
1.000000
1.000000
1.000000
1.000000
1.000000
1.000000
1.000000
1.000000
1.000000
1.000000
1.000000
1.000000
1.000000
1.000000
1.000000
1.000000
1.000000
1.000000
1.000000
1.000000
1.000000
1.000000
1.000000
1.000000
1.000000
1.000000
1.000000
1.000000
1.000000
1.000000
1.000000
1.000000
1.000000
1.000000
1.000000
1.000000
1.000000
1.000000
1.000000
1.000000
1.000000
1.000000
1.000000
1.000000
1.000000
1.000000
1.000000
1.000000
1.000000
1.000000
1.000000
1.000000
1.000000
1.000000
1.000000
1.000000
1.000000
1.000000
1.000000
1.000000
1.000000
1.000000
1.000000
1.000000
1.000000
1.000000
1.000000
1.000000
1.000000
1.000000
1.000000
1.000000
1.000000
1.000000
1.000000
1.000000
1.000000
1.000000
1.000000
1.000000
1.000000
1.000000
1.000000
1.000000
1.000000
1.000000
1.000000
1.000000
1.000000
1.000000
1.000000
1.000000
1.000000
1.000000
1.000000
1.000000
1.000000
1.000000
1.000000
1.000000
1.000000
1.000000
1.000000
1.000000
1.000000
1.000000
1.000000
1.000000
1.000000
1.000000
1.000000
1.000000
1.000000
1.000000
1.000000
1.000000
1.000000
1.000000
1.000000
1.000000
1.000000
1.000000
1.000000
1.000000
1.000000
1.000000
1.000000
1.000000
1.000000
1.000000
1.000000
1.000000
1.000000
1.000000
1.000000
1.000000
1.000000
1.000000
1.000000
1.000000
1.000000
1.000000
1.000000
1.000000
1.000000
1.000000
1.000000
1.000000
1.000000
1.000000
1.000000
1.000000
1.000000
1.000000
1.000000
1.000000
1.000000
1.000000
1.000000
1.000000
1.000000
1.000000
1.000000
1.000000
1.000000
1.000000
1.000000
1.000000
1.000000
1.000000
1.000000
1.000000
1.000000
1.000000
1.000000
1.000000
1.000000
1.000000
1.000000
1.000000
1.000000
1.000000
1.000000
1.000000
1.000000
1.000000
1.000000
1.000000
1.000000
1.000000
1.000000
1.000000
1.000000
1.000000
1.000000
1.000000
1.000000
1.000000
1.000000
1.000000
1.000000
1.000000
1.000000
1.000000
1.000000
1.000000
1.000000
1.000000
1.000000
1.000000
1.000000
1.000000
1.000000
1.000000
1.000000
1.000000
1.000000
1.000000
1.000000
1.000000
1.000000
1.000000
1.000000
1.000000
1.000000
1.000000
1.000000
1.000000
1.000000
1.000000
1.000000
1.000000
1.000000
1.000000
1.000000
1.000000
1.000000
1.000000
1.000000
1.000000
1.000000
1.000000
1.000000
1.000000
1.000000
1.000000
1.000000
1.000000
1.000000
1.000000
1.000000
1.000000
1.000000
1.000000
1.000000
1.000000
1.000000
1.000000
1.000000
1.000000
1.000000
1.000000
1.000000
1.000000
1.000000
1.000000
1.000000
1.000000
1.000000
1.000000
1.000000
1.000000
1.000000
1.000000
1.000000
1.000000
1.000000
1.000000
1.000000
1.000000
1.000000
1.000000
1.000000
1.000000
1.000000
1.000000
1.000000
1.000000
1.000000
1.000000
1.000000
1.000000
1.000000
1.000000
1.000000
1.000000
1.000000
1.000000
1.000000
1.000000
1.000000
1.000000
1.000000
1.000000
1.000000
1.000000
1.000000
1.000000
1.000000
1.000000
1.000000
1.000000
1.000000
1.000000
1.000000
VECTORS v double
3.957147 -7.061282 0.000000
-2.570963 -4.134299 0.000000
-3.108479 4.829169 0.000000
-6.151117 -1.488928 0.000000
4.154994 -5.767823 0.000000
0.036226 11.054198 0.000000
10.102630 6.873133 0.000000
12.807538 11.388131 0.000000
-7.386930 13.122302 0.000000
5.739178 4.993169 0.000000
9.968367 -0.406662 0.000000
9.862738 1.389069 0.000000
10.006522 -0.001225 0.000000
9.834962 -1.575008 0.000000
9.911247 0.380471 0.000000
-5.598503 -5.086664 0.000000
0.023185 1.061900 0.000000
-3.999901 -5.974750 0.000000
-5.785663 3.865603 0.000000
3.597127 -7.737259 0.000000
0.609374 -9.307233 0.000000
7.233408 7.762673 0.000000
1.683372 -2.309334 0.000000
5.516615 7.478914 0.000000
-4.740238 0.278426 0.000000
2.630988 -13.726701 0.000000
1.633124 -10.742415 0.000000
5.370207 -9.598519 0.000000
-0.806439 -10.344904 0.000000
0.382967 5.583684 0.000000
-1.707129 -8.165487 0.000000
-9.025466 -1.004375 0.000000
-5.112595 -1.351190 0.000000
9.287620 8.819696 0.000000
3.791765 1.489867 0.000000
-0.998014 5.096542 0.000000
8.381197 -5.013721 0.000000
10.052121 -0.020683 0.000000
9.923348 1.925737 0.000000
5.600336 -7.712703 0.000000
1.348241 -15.029160 0.000000
-4.494954 -6.942162 0.000000
-4.545541 0.424678 0.000000
-4.679722 7.534011 0.000000
1.249478 0.124744 0.000000
8.979031 5.409809 0.000000
-0.265203 -2.291939 0.000000
5.388082 9.583044 0.000000
-3.754794 -2.414658 0.000000
2.630988 13.726701 0.000000
0.078944 -9.537378 0.000000
13.348001 -9.107074 0.000000
5.059824 -4.491974 0.000000
-7.360740 8.929061 0.000000
9.484682 -2.758167 0.000000
0.721392 -5.012639 0.000000
-5.385766 -6.712375 0.000000
-5.683432 -5.886465 0.000000
-9.401165 5.715030 0.000000
-6.689093 1.208876 0.000000
7.692145 -3.556724 0.000000
-7.346876 6.136910 0.000000
13.858227 -8.618599 0.000000
11.208039 -7.551043 0.000000
-0.228285 -1.941460 0.000000
2.796688 4.664143 0.000000
10.577032 0.218507 0.000000
-3.707508 -6.779525 0.000000
1.657053 6.672621 0.000000
2.443395 4.386831 0.000000
3.432766 8.014613 0.000000
-4.530594 -3.570801 0.000000
3.552282 2.346804 0.000000
0.969555 7.918951 0.000000
0.088845 9.515840 0.000000
-0.336704 -3.536350 0.000000
6.835100 -10.617944 0.000000
2.339010 -1.730672 0.000000
6.019262 -2.418714 0.000000
-8.962320 3.724051 0.000000
-8.765905 4.073098 0.000000
-18.128866 1.270787 0.000000
-9.011654 -1.590815 0.000000
5.216164 2.263031 0.000000
5.002294 -12.362015 0.000000
2.121642 5.069098 0.000000
8.563747 13.324081 0.000000
9.944458 0.170418 0.000000
-5.176531 2.003092 0.000000
3.968795 -19.111694 0.000000
-12.556036 7.576175 0.000000
8.681383 0.760530 0.000000
-1.530508 -11.654483 0.000000
-10.884856 1.816260 0.000000
-4.040555 -1.783686 0.000000
-4.158090 12.153981 0.000000
4.142114 7.185426 0.000000
-6.017258 8.679183 0.000000
6.835105 10.617943 0.000000
-0.350856 3.546700 0.000000
-4.977439 -0.428470 0.000000
-6.684028 -6.851639 0.000000
-3.204723 -18.591021 0.000000
-5.892872 -5.510623 0.000000
3.963114 1.548037 0.000000
4.624796 3.292783 0.000000
1.519108 0.706928 0.000000
-11.594942 5.665638 0.000000
6.830443 1.134624 0.000000
-1.934688 -3.683974 0.000000
-9.353269 5.361654 0.000000
-0.832335 -10.080126 0.000000
14.495020 7.060227 0.000000
-1.703521 -18.628794 0.000000
-5.643521 -8.050967 0.000000
1.599596 -7.798612 0.000000
-6.261669 5.809065 0.000000
-1.226146 -6.376138 0.000000
-2.934422 5.692971 0.000000
-2.009859 -1.063435 0.000000
5.846697 -0.056450 0.000000
-6.870187 7.243981 0.000000
9.830618 6.594374 0.000000
4.279940 11.347481 0.000000
-5.787105 7.616572 0.000000
-1.112205 -6.327351 0.000000
-1.995905 -10.927625 0.000000
5.224587 -12.370314 0.000000
-2.506861 7.097190 0.000000
-6.603374 -0.253548 0.000000
-7.034998 4.504804 0.000000
-3.568666 4.491008 0.000000
-1.693792 3.854690 0.000000
2.353481 5.503191 0.000000
10.001374 -15.767563 0.000000
-16.075378 -0.617733 0.000000
-2.976670 18.830707 0.000000
-5.130136 -2.253087 0.000000
17.310796 4.639976 0.000000
11.927504 -12.082581 0.000000
1.546624 -0.594664 0.000000
-2.100634 -5.040709 0.000000
3.708243 12.472452 0.000000
-2.600561 -2.851660 0.000000
-3.176249 7.599396 0.000000
-2.511672 -11.502027 0.000000
6.343782 -14.575484 0.000000
13.117572 6.964430 0.000000
-1.995466 10.927751 0.000000
-1.112226 6.327379 0.000000
-4.581111 -5.583977 0.000000
-0.690572 -18.204932 0.000000
3.971369 -4.827450 0.000000
-5.970692 -7.189037 0.000000
1.624284 13.062294 0.000000
6.781377 -8.751728 0.000000
7.094116 6.933759 0.000000
0.066355 12.216963 0.000000
-9.556551 -3.708661 0.000000
-1.502807 11.380390 0.000000
-9.487735 1.255211 0.000000
-4.262374 -6.134599 0.000000
-1.650286 -3.874000 0.000000
-8.672567 -6.660029 0.000000
-5.869573 12.218242 0.000000
-7.363829 -5.166508 0.000000
0.819125 16.414107 0.000000
-8.061542 13.774071 0.000000
-0.609560 -6.574792 0.000000
-9.438261 2.547013 0.000000
8.898503 -5.101243 0.000000
2.943547 -8.781190 0.000000
-1.909698 -8.345678 0.000000
-13.981990 8.489551 0.000000
-0.211621 9.874751 0.000000
4.837053 -9.997753 0.000000
-2.022357 -9.036321 0.000000
10.430920 -0.572784 0.000000
-6.508837 -4.965956 0.000000
-8.120990 3.989882 0.000000
-2.453185 -4.758338 0.000000
3.171541 -3.759763 0.000000
-0.344955 -7.248733 0.000000
-2.142665 3.554707 0.000000
-6.170272 6.609221 0.000000
-15.958760 4.827172 0.000000
-9.361486 -4.815951 0.000000
-6.813577 -9.832843 0.000000
0.577710 10.245035 0.000000
6.343631 4.636460 0.000000
-8.509520 10.569467 0.000000
-1.267860 -2.117138 0.000000
-11.986800 -4.648280 0.000000
-3.227054 -6.718202 0.000000
-7.107034 -2.270122 0.000000
-11.873541 -8.785725 0.000000
-2.760574 -12.000355 0.000000
-5.418837 11.097718 0.000000
-4.321362 -13.112490 0.000000
4.837053 9.997753 0.000000
-2.891938 -4.328672 0.000000
10.035822 -1.778060 0.000000
-5.170325 -11.799050 0.000000
4.477405 9.266089 0.000000
-7.678918 -0.649461 0.000000
1.372427 -3.118414 0.000000
-7.950217 13.739672 0.000000
2.176118 -6.595010 0.000000
4.067894 -1.822248 0.000000
-6.746520 -7.609023 0.000000
-0.578066 4.205672 0.000000
-14.142816 -12.667701 0.000000
0.233137 9.508580 0.000000
-8.360959 -0.432383 0.000000
-3.968536 3.641645 0.000000
3.428989 1.585867 0.000000
-1.369215 -0.066308 0.000000
-5.924345 -8.313257 0.000000
-9.789833 -8.416819 0.000000
-8.757286 -5.171461 0.000000
4.201711 -2.559059 0.000000
-9.461690 4.111128 0.000000
0.966169 7.785913 0.000000
-4.551605 6.612050 0.000000
0.416011 8.131981 0.000000
1.556194 -0.880494 0.000000
-3.933339 -8.257607 0.000000
-7.130355 -6.611140 0.000000
-0.697576 -3.591243 0.000000
-0.581672 18.454046 0.000000
-13.586733 -7.686552 0.000000
1.869973 -0.608600 0.000000
10.052429 4.749770 0.000000
-0.519729 -5.683897 0.000000
7.249562 2.950928 0.000000
2.944213 14.970090 0.000000
7.511969 1.093903 0.000000
-1.553263 18.087307 0.000000
0.530954 18.205592 0.000000
11.581731 -5.516517 0.000000
14.119150 -0.493480 0.000000
12.624573 5.869200 0.000000
1.151862 1.124530 0.000000
-7.832322 9.825991 0.000000
2.949641 -1.714128 0.000000
-2.379107 4.031618 0.000000
-1.291823 1.477444 0.000000
-7.309039 7.003635 0.000000
-3.933337 8.257604 0.000000
1.767122 1.798678 0.000000
11.771956 -6.269551 0.000000
-13.126225 -7.346282 0.000000
3.690169 0.066265 0.000000
-2.377379 -1.332023 0.000000
-4.966875 -1.548369 0.000000
9.813769 7.180512 0.000000
-10.299844 2.126286 0.000000
-1.046048 -5.617028 0.000000
-4.449266 -5.998560 0.000000
-8.210958 8.084186 0.000000
-2.269422 0.571590 0.000000
-9.905663 -1.334007 0.000000
3.296867 -14.176419 0.000000
-9.860878 -14.478759 0.000000
-2.640896 9.352185 0.000000
7.630062 -1.383371 0.000000
2.718604 -9.142186 0.000000
-0.848839 -8.834338 0.000000
-12.129507 -0.856037 0.000000
-3.486241 -4.896305 0.000000
1.644019 -6.774132 0.000000
-7.687205 6.472208 0.000000
4.988622 8.373855 0.000000
-3.705458 -6.508032 0.000000
-7.871669 -3.596050 0.000000
-7.979701 -7.180306 0.000000
-9.984426 -5.449404 0.000000
-5.618182 12.362410 0.000000
2.967438 -7.848541 0.000000
2.413387 3.604370 0.000000
-14.440611 6.039517 0.000000
1.109769 5.652156 0.000000
-6.312033 0.970369 0.000000
-16.853053 4.390936 0.000000
-11.022486 3.325283 0.000000
4.721685 4.335103 0.000000
9.920311 1.171699 0.000000
5.597309 9.137152 0.000000
-10.020081 -0.110314 0.000000
-6.771508 -4.672794 0.000000
-10.610321 -1.650583 0.000000
6.168577 -9.198327 0.000000
7.912441 4.385721 0.000000
7.269521 0.745553 0.000000
-5.239076 -2.809535 0.000000
0.471174 7.357525 0.000000
-1.555889 8.569098 0.000000
-5.411620 5.726767 0.000000
-8.389348 5.121119 0.000000
-7.983375 7.192438 0.000000
-10.021616 -0.197631 0.000000
-6.029142 -8.667099 0.000000
3.580070 1.425927 0.000000
8.732249 -3.475959 0.000000
3.495038 -5.518418 0.000000
-2.153279 1.663800 0.000000