# vtk DataFile Version 4.0
hesp visualization file
ASCII
DATASET UNSTRUCTURED_GRID
POINTS 1250 double
33.437448 -2.151813 4.000000
31.297953 -1.488892 4.000000
33.647901 6.575054 4.000000
33.300137 7.924296 4.000000
28.776342 4.665244 4.000000
29.764117 14.253639 4.000000
31.259595 8.768792 4.000000
33.247088 9.949626 4.000000
33.347910 15.456992 4.000000
34.351839 13.541971 4.000000
33.457421 11.111819 4.000000
31.960714 15.411952 4.000000
32.424192 15.858467 4.000000
30.209162 16.840411 4.000000
31.302238 18.179298 4.000000
29.013646 16.176827 4.000000
31.663851 19.694190 4.000000
34.094731 16.427317 4.000000
27.656843 23.052216 4.000000
28.874566 17.192161 4.000000
35.112785 23.908207 4.000000
30.507404 31.374225 4.000000
34.993264 25.273832 4.000000
31.583692 31.625873 4.000000
30.916440 29.541584 4.000000
32.074327 -17.978268 4.000000
31.637539 1.292781 4.000000
35.005306 -7.799341 4.000000
31.934010 1.729427 4.000000
26.573500 9.110041 4.000000
30.513697 3.393298 4.000000
33.152873 7.585828 4.000000
31.612636 12.074041 4.000000
33.414593 12.464087 4.000000
31.839055 12.763016 4.000000
30.544475 11.802048 4.000000
27.563950 12.327936 4.000000
34.346185 15.200868 4.000000
31.323525 16.853910 4.000000
35.214843 15.153984 4.000000
30.952168 14.315021 4.000000
32.334612 17.486732 4.000000
31.180464 16.482859 4.000000
32.871559 20.762773 4.000000
31.463206 24.046898 4.000000
31.454171 25.015300 4.000000
32.334894 19.971012 4.000000
35.024516 36.971618 4.000000
31.480656 29.291760 4.000000
32.074327 47.162282 4.000000
31.834178 -7.288095 4.000000
34.255380 1.952148 4.000000
32.242161 1.241461 4.000000
28.677180 8.273814 4.000000
35.071165 -0.109446 4.000000
30.405125 10.876410 4.000000
31.434519 8.350979 4.000000
30.320601 6.004450 4.000000
29.989342 14.848970 4.000000
32.806337 11.250595 4.000000
31.371227 12.941540 4.000000
26.011058 16.129975 4.000000
36.602450 14.402705 4.000000
36.410357 14.235049 4.000000
33.978769 13.527072 4.000000
33.508129 15.165328 4.000000
30.264974 20.591384 4.000000
29.904237 20.838159 4.000000
30.506247 19.488433 4.000000
35.912544 14.719372 4.000000
30.807414 25.594457 4.000000
31.264030 19.313697 4.000000
32.575079 21.600469 4.000000
32.756468 30.445887 4.000000
31.755539 36.428154 4.000000
32.119060 -6.073863 4.000000
35.981832 -11.692684 4.000000
31.880549 4.567950 4.000000
37.840493 2.305671 4.000000
30.128809 2.106535 4.000000
32.245994 2.322538 4.000000
29.570269 7.672797 4.000000
29.634682 12.204330 4.000000
31.982027 8.001211 4.000000
34.424706 2.434220 4.000000
36.832911 15.592336 4.000000
33.148154 14.164279 4.000000
36.476449 10.125980 4.000000
30.526438 16.083099 4.000000
35.569218 16.329290 4.000000
29.564507 17.714608 4.000000
35.918575 18.383253 4.000000
32.010688 11.893207 4.000000
28.817378 23.517024 4.000000
30.848525 17.860773 4.000000
36.451790 27.944477 4.000000
36.647351 30.568463 4.000000
30.925511 27.616076 4.000000
35.981838 40.876696 4.000000
33.239358 34.402055 4.000000
31.329692 1.567247 4.000000
32.619060 1.446419 4.000000
30.658544 -10.623812 4.000000
31.549247 4.064911 4.000000
31.347304 7.530604 4.000000
30.755961 12.414591 4.000000
33.484775 7.434769 4.000000
35.959636 11.099595 4.000000
34.392277 8.011781 4.000000
34.351113 10.366409 4.000000
31.685757 15.056805 4.000000
32.117695 8.751095 4.000000
36.720070 18.731944 4.000000
32.952820 16.126523 4.000000
26.423046 17.608903 4.000000
37.045891 12.842027 4.000000
30.244263 19.808798 4.000000
31.903310 18.302875 4.000000
32.979474 23.638952 4.000000
32.203737 21.449738 4.000000
32.544205 23.610305 4.000000
34.564485 23.284385 4.000000
34.799324 36.522049 4.000000
32.813619 28.986044 4.000000
30.461942 29.827269 4.000000
30.384785 -6.483554 4.000000
31.054503 -11.263632 4.000000
38.152559 5.864825 4.000000
28.484574 4.194948 4.000000
32.474186 6.213497 4.000000
31.013531 7.289700 4.000000
29.578618 8.557631 4.000000
33.055527 13.198817 4.000000
31.313287 11.738884 4.000000
32.620631 7.911109 4.000000
29.614157 11.420684 4.000000
34.272406 12.296038 4.000000
32.304495 13.435845 4.000000
34.311434 13.858498 4.000000
31.873577 10.625127 4.000000
33.992868 15.037125 4.000000
35.293663 16.629788 4.000000
33.201986 25.314183 4.000000
29.854327 18.713329 4.000000
28.472167 25.739739 4.000000
29.757717 19.150030 4.000000
29.155335 18.128923 4.000000
42.571145 20.781803 4.000000
30.935690 39.989583 4.000000
30.382364 35.666730 4.000000
30.858508 -2.434476 4.000000
36.402641 -7.009622 4.000000
32.526205 -3.455416 4.000000
32.578806 3.030404 4.000000
27.976061 9.215097 4.000000
32.317988 5.979431 4.000000
33.576368 8.102864 4.000000
37.472132 14.069282 4.000000
28.542153 5.198758 4.000000
31.082103 9.632054 4.000000
30.501249 10.058863 4.000000
36.989061 16.268556 4.000000
34.080795 13.807008 4.000000
29.184920 15.385478 4.000000
34.290476 24.697714 4.000000
33.224646 17.643880 4.000000
32.250892 24.941768 4.000000
34.432483 21.974850 4.000000
29.984869 21.128008 4.000000
30.871552 22.405048 4.000000
33.231987 30.192535 4.000000
33.279079 17.992626 4.000000
30.864781 28.609082 4.000000
31.624686 30.479892 4.000000
32.256191 32.160252 4.000000
41.614890 -12.312998 4.000000
32.264333 -4.525632 4.000000
36.483655 -0.508479 4.000000
31.446046 5.288979 4.000000
30.858804 7.589390 4.000000
33.321696 3.256881 4.000000
35.749313 9.119129 4.000000
36.962387 10.525869 4.000000
30.513098 11.546154 4.000000
33.919733 12.824401 4.000000
32.119982 12.924132 4.000000
33.598463 12.760606 4.000000
34.078469 17.889990 4.000000
37.059443 19.843464 4.000000
34.407023 17.119795 4.000000
34.839379 16.045620 4.000000
36.200476 18.386399 4.000000
34.818586 23.050855 4.000000
34.833721 19.889704 4.000000
29.660063 21.142663 4.000000
32.315671 19.495491 4.000000
32.500722 19.682040 4.000000
35.572723 30.960373 4.000000
32.137854 17.979191 4.000000
41.614890 41.497011 4.000000
30.233466 -0.213408 4.000000
33.913467 0.818505 4.000000
36.013292 -7.347742 4.000000
37.613279 4.894234 4.000000
33.971328 7.648663 4.000000
35.347348 5.379817 4.000000
29.043022 13.364540 4.000000
35.757029 11.572946 4.000000
37.265427 8.683569 4.000000
34.689377 6.054686 4.000000
35.832565 7.352417 4.000000
37.842738 16.125549 4.000000
39.528423 15.449911 4.000000
34.419107 16.529441 4.000000
31.287565 18.940218 4.000000
36.164036 17.108478 4.000000
34.422341 17.439789 4.000000
37.174748 15.704714 4.000000
30.921732 16.741737 4.000000
31.395174 21.078023 4.000000
35.188221 19.851480 4.000000
34.528609 24.185078 4.000000
37.788534 33.925874 4.000000
25.997845 29.136268 4.000000
33.381734 32.860005 4.000000
32.002200 0.400811 4.000000
31.525520 -8.167400 4.000000
31.671179 -1.303848 4.000000
34.906902 2.515322 4.000000
34.914813 9.381544 4.000000
33.681834 2.275211 4.000000
38.253154 7.220232 4.000000
38.449985 12.597030 4.000000
33.787294 14.610253 4.000000
37.503022 11.870007 4.000000
32.312541 10.258937 4.000000
37.343396 14.767076 4.000000
33.350207 13.599707 4.000000
37.737769 18.983471 4.000000
35.641133 16.680307 4.000000
37.092385 14.942104 4.000000
36.514679 17.484109 4.000000
32.290082 21.177757 4.000000
33.444564 23.566762 4.000000
36.605729 21.781836 4.000000
34.997998 24.981520 4.000000
31.405322 26.626915 4.000000
32.244578 31.008752 4.000000
31.526416 37.351576 4.000000
32.358530 28.000645 4.000000
31.896307 -3.470457 4.000000
35.323480 -2.451238 4.000000
34.460741 4.736732 4.000000
33.294101 1.635641 4.000000
34.743754 5.694831 4.000000
41.287061 7.759880 4.000000
29.562267 6.981969 4.000000
35.214446 12.523204 4.000000
34.059643 9.355224 4.000000
39.321404 15.094565 4.000000
34.971934 12.880536 4.000000
36.917959 6.307291 4.000000
36.607704 12.840866 4.000000
36.325080 14.735736 4.000000
36.835970 17.215098 4.000000
38.043519 14.276450 4.000000
34.038561 16.866326 4.000000
34.671176 14.507042 4.000000
30.484293 21.092281 4.000000
34.996741 21.601341 4.000000
36.376492 21.420488 4.000000
29.127979 30.664249 4.000000
36.782820 27.195355 4.000000
33.223461 25.590523 4.000000
31.312684 31.300391 4.000000
30.706800 -6.743087 4.000000
33.071680 -6.287201 4.000000
35.243768 12.206122 4.000000
33.952080 3.820758 4.000000
37.210181 12.054264 4.000000
33.835852 8.954101 4.000000
36.458227 8.943919 4.000000
32.742562 8.667997 4.000000
35.027812 11.687173 4.000000
37.196717 13.468280 4.000000
37.970856 12.774631 4.000000
37.764390 12.422244 4.000000
35.692975 20.394082 4.000000
34.378903 17.900620 4.000000
37.943282 17.774842 4.000000
33.767357 17.057547 4.000000
37.833294 17.106260 4.000000
39.245512 22.018207 4.000000
35.450052 20.942072 4.000000
35.632095 23.297759 4.000000
36.775014 28.411812 4.000000
30.759171 28.214507 4.000000
40.866151 18.919621 4.000000
33.773132 35.180788 4.000000
30.697287 35.397951 4.000000
30.963059 -1.980615 4.000000
31.119859 -5.027065 4.000000
39.742163 1.040731 4.000000
38.131005 6.916147 4.000000
36.425677 4.520674 4.000000
36.531158 7.941422 4.000000
35.318923 6.294944 4.000000
32.423601 6.914782 4.000000
34.648069 12.235394 4.000000
39.479520 12.740509 4.000000
38.460322 8.974292 4.000000
36.913577 11.899846 4.000000
40.043194 18.155468 4.000000
37.400884 15.658435 4.000000
37.694780 22.052101 4.000000
35.824746 18.772716 4.000000
34.253822 18.316667 4.000000
35.857056 19.915706 4.000000
36.940495 18.882142 4.000000
35.548714 23.736204 4.000000
39.568633 21.455168 4.000000
33.808780 19.964072 4.000000
35.376906 35.792855 4.000000
29.711021 33.276316 4.000000
33.694401 34.588761 4.000000
32.982575 -2.119162 4.000000
33.970027 -1.690054 4.000000
31.934454 -4.645116 4.000000
35.450971 0.844183 4.000000
34.345664 4.036258 4.000000
39.006099 4.896745 4.000000
38.541205 6.022783 4.000000
42.747002 8.181378 4.000000
34.821356 11.355231 4.000000
38.805418 11.810959 4.000000
33.862072 11.311951 4.000000
38.932535 15.947005 4.000000
35.695977 15.641367 4.000000
38.344915 15.925809 4.000000
41.435969 14.665682 4.000000
33.366243 21.523471 4.000000
36.692654 16.856904 4.000000
34.371102 18.843427 4.000000
[...]
POINT_DATA 1250
SCALARS m double
LOOKUP_TABLE default
1.000000
1.000000
1.000000
1.000000
1.000000
1.000000
1.000000
1.000000
1.000000
1.000000
1.000000
1.000000
1.000000
1.000000
1.000000
1.000000
1.000000
1.000000
1.000000
1.000000
1.000000
1.000000
1.000000
1.000000
1.000000
1.000000
1.000000
1.000000
1.000000
1.000000
1.000000
1.000000
1.000000
1.000000
1.000000
1.000000
1.000000
1.000000
1.000000
1.000000
1.000000
1.000000
1.000000
1.000000
1.000000
1.000000
1.000000
1.000000
1.000000
1.000000
1.000000
1.000000
1.000000
1.000000
1.000000
1.000000
1.000000
1.000000
1.000000
1.000000
1.000000
1.000000
1.000000
1.000000
1.000000
1.000000
1.000000
1.000000
1.000000
1.000000
1.000000
1.000000
1.000000
1.000000
1.000000
1.000000
1.000000
1.000000
1.000000
1.000000
1.000000
1.000000
1.000000
1.000000
1.000000
1.000000
1.000000
1.000000
1.000000
1.000000
1.000000
1.000000
1.000000
1.000000
1.000000
1.000000
1.000000
1.000000
1.000000
1.000000
1.000000
1.000000
1.000000
1.000000
1.000000
1.000000
1.000000
1.000000
1.000000
1.000000
1.000000
1.000000
1.000000
1.000000
1.000000
1.000000
1.000000
1.000000
1.000000
1.000000
1.000000
1.000000
1.000000
1.000000
1.000000
1.000000
1.000000
1.000000
1.000000
1.000000
1.000000
1.000000
1.000000
1.000000
1.000000
1.000000
1.000000
1.000000
1.000000
1.000000
1.000000
1.000000
1.000000
1.000000
1.000000
1.000000
1.000000
1.000000
1.000000
1.000000
1.000000
1.000000
1.000000
1.000000
1.000000
1.000000
1.000000
1.000000
1.000000
1.000000
1.000000
1.000000
1.000000
1.000000
1.000000
1.000000
1.000000
1.000000
1.000000
1.000000
1.000000
1.000000
1.000000
1.000000
1.000000
1.000000
1.000000
1.000000
1.000000
1.000000
1.000000
1.000000
1.000000
1.000000
1.000000
1.000000
1.000000
1.000000
1.000000
1.000000
1.000000
1.000000
1.000000
1.000000
1.000000
1.000000
1.000000
1.000000
1.000000
1.000000
1.000000
1.000000
1.000000
1.000000
1.000000
1.000000
1.000000
1.000000
1.000000
1.000000
1.000000
1.000000
1.000000
1.000000
1.000000
1.000000
1.000000
1.000000
1.000000
1.000000
1.000000
1.000000
1.000000
1.000000
1.000000
1.000000
1.000000
1.000000
1.000000
1.000000
1.000000
1.000000
1.000000
1.000000
1.000000
1.000000
1.000000
1.000000
1.000000
1.000000
1.000000
1.000000
1.000000
1.000000
1.000000
1.000000
1.000000
1.000000
1.000000
1.000000
1.000000
1.000000
1.000000
1.000000
1.000000
1.000000
1.000000
1.000000
1.000000
1.000000
1.000000
1.000000
1.000000
1.000000
1.000000
1.000000
1.000000
1.000000
1.000000
1.000000
1.000000
1.000000
1.000000
1.000000
1.000000
1.000000
1.000000
1.000000
1.000000
1.000000
1.000000
1.000000
1.000000
1.000000
1.000000
1.000000
1.000000
1.000000
1.000000
1.000000
1.000000
1.000000
1.000000
1.000000
1.000000
1.000000
1.000000
1.000000
1.000000
1.000000
1.000000
1.000000
1.000000
1.000000
1.000000
1.000000
1.000000
1.000000
1.000000
1.000000
1.000000
1.000000
1.000000
1.000000
1.000000
1.000000
1.000000
1.000000
1.000000
1.000000
1.000000
1.000000
1.000000
1.000000
1.000000
1.000000
1.000000
1.000000
1.000000
1.000000
1.000000
1.000000
1.000000
1.000000
1.000000
1.000000
1.000000
1.000000
1.000000
1.000000
1.000000
1.000000
1.000000
1.000000
1.000000
1.000000
1.000000
1.000000
1.000000
1.000000
1.000000
1.000000
1.000000
1.000000
1.000000
1.000000
1.000000
1.000000
1.000000
1.000000
1.000000
1.000000
1.000000
1.000000
1.000000
1.000000
1.000000
1.000000
1.000000
1.000000
1.000000
1.000000
1.000000
1.000000
1.000000
1.000000
1.000000
1.000000
1.000000
1.000000
1.000000
1.000000
1.000000
1.000000
1.000000
1.000000
1.000000
1.000000
1.000000
1.000000
1.000000
1.000000
1.000000
1.000000
1.000000
1.000000
1.000000
1.000000
1.000000
1.000000
1.000000
1.000000
1.000000
1.000000
1.000000
1.000000
1.000000
1.000000
1.000000
1.000000
1.000000
1.000000
1.000000
1.000000
1.000000
1.000000
1.000000
1.000000
1.000000
1.000000
1.000000
1.000000
1.000000
1.000000
1.000000
1.000000
1.000000
1.000000
1.000000
1.000000
1.000000
1.000000
1.000000
1.000000
1.000000
1.000000
1.000000
1.000000
1.000000
1.000000
1.000000
1.000000
1.000000
1.000000
1.000000
1.000000
1.000000
1.000000
1.000000
1.000000
1.000000
1.000000
1.000000
1.000000
1.000000
1.000000
1.000000
1.000000
1.000000
1.000000
1.000000
1.000000
1.000000
1.000000
1.000000
1.000000
1.000000
1.000000
1.000000
1.000000
1.000000
1.000000
1.000000
1.000000
1.000000
1.000000
1.000000
1.000000
1.000000
1.000000
1.000000
1.000000
1.000000
1.000000
1.000000
1.000000
1.000000
1.000000
1.000000
1.000000
1.000000
1.000000
1.000000
1.000000
1.000000
1.000000
1.000000
1.000000
1.000000
1.000000
1.000000
1.000000
1.000000
1.000000
1.000000
1.000000
1.000000
1.000000
1.000000
1.000000
1.000000
1.000000
1.000000
1.000000
1.000000
1.000000
1.000000
1.000000
1.000000
1.000000
1.000000
1.000000
1.000000
1.000000
1.000000
1.000000
1.000000
1.000000
1.000000
1.000000
1.000000
1.000000
1.000000
1.000000
1.000000
1.000000
1.000000
1.000000
1.000000
1.000000
1.000000
1.000000
1.000000
1.000000
1.000000
1.000000
1.000000
1.000000
1.000000
1.000000
1.000000
1.000000
1.000000
1.000000
1.000000
1.000000
1.000000
1.000000
1.000000
1.000000
1.000000
1.000000
1.000000
1.000000
1.000000
1.000000
1.000000
1.000000
1.000000
1.000000
1.000000
1.000000
1.000000
1.000000
1.000000
1.000000
1.000000
1.000000
1.000000
1.000000
1.000000
1.000000
1.000000
1.000000
1.000000
1.000000
1.000000
1.000000
1.000000
1.000000
1.000000
1.000000
1.000000
1.000000
1.000000
1.000000
1.000000
1.000000
1.000000
1.000000
1.000000
1.000000
1.000000
1.000000
1.000000
1.000000
1.000000
1.000000
1.000000
1.000000
1.000000
1.000000
1.000000
1.000000
1.000000
1.000000
1.000000
1.000000
1.000000
1.000000
1.000000
1.000000
1.000000
1.000000
1.000000
1.000000
1.000000
1.000000
1.000000
1.000000
1.000000
1.000000
1.000000
1.000000
1.000000
1.000000
1.000000
1.000000
1.000000
1.000000
1.000000
1.000000
1.000000
1.000000
1.000000
1.000000
1.000000
1.000000
1.000000
1.000000
1.000000
1.000000
1.000000
1.000000
1.000000
1.000000
1.000000
1.000000
1.000000
1.000000
1.000000
1.000000
1.000000
1.000000
1.000000
1.000000
1.000000
1.000000
1.000000
1.000000
1.000000
1.000000
1.000000
1.000000
1.000000
1.000000
1.000000
1.000000
1.000000
1.000000
1.000000
1.000000
1.000000
1.000000
1.000000
1.000000
1.000000
1.000000
1.000000
1.000000
1.000000
1.000000
1.000000
1.000000
1.000000
1.000000
1.000000
1.000000
1.000000
1.000000
1.000000
1.000000
1.000000
1.000000
1.000000
1.000000
1.000000
1.000000
1.000000
1.000000
1.000000
1.000000
1.000000
1.000000
1.000000
1.000000
1.000000
1.000000
1.000000
1.000000
1.000000
1.000000
1.000000
1.000000
1.000000
1.000000
1.000000
1.000000
1.000000
1.000000
1.000000
1.000000
1.000000
1.000000
1.000000
1.000000
1.000000
1.000000
1.000000
1.000000
1.000000
1.000000
1.000000
1.000000
1.000000
1.000000
1.000000
1.000000
1.000000
1.000000
1.000000
1.000000
1.000000
1.000000
1.000000
1.000000
1.000000
1.000000
1.000000
1.000000
1.000000
1.000000
1.000000
1.000000
1.000000
1.000000
1.000000
1.000000
1.000000
1.000000
1.000000
1.000000
1.000000
1.000000
1.000000
1.000000
1.000000
1.000000
1.000000
1.000000
1.000000
1.000000
1.000000
1.000000
1.000000
1.000000
1.000000
1.000000
1.000000
1.000000
1.000000
1.000000
1.000000
1.000000
1.000000
1.000000
1.000000
1.000000
1.000000
1.000000
1.000000
1.000000
1.000000
1.000000
1.000000
1.000000
1.000000
1.000000
1.000000
1.000000
1.000000
1.000000
1.000000
1.000000
1.000000
1.000000
1.000000
1.000000
1.000000
1.000000
1.000000
1.000000
1.000000
1.000000
1.000000
1.000000
1.000000
1.000000
1.000000
1.000000
1.000000
1.000000
1.000000
1.000000
1.000000
1.000000
1.000000
1.000000
1.000000
1.000000
1.000000
1.000000
1.000000
1.000000
1.000000
1.000000
1.000000
1.000000
1.000000
1.000000
1.000000
1.000000
1.000000
1.000000
1.000000
1.000000
1.000000
1.000000
1.000000
1.000000
1.000000
1.000000
1.000000
1.000000
1.000000
1.000000
1.000000
1.000000
1.000000
1.000000
1.000000
1.000000
1.000000
1.000000
1.000000
1.000000
1.000000
1.000000
1.000000
1.000000
1.000000
1.000000
1.000000
1.000000
1.000000
1.000000
1.000000
1.000000
1.000000
1.000000
1.000000
1.000000
1.000000
1.000000
1.000000
1.000000
1.000000
1.000000
1.000000
1.000000
1.000000
1.000000
1.000000
1.000000
1.000000
1.000000
1.000000
1.000000
1.000000
1.000000
1.000000
1.000000
1.000000
1.000000
1.000000
1.000000
1.000000
1.000000
1.000000
1.000000
1.000000
1.000000
1.000000
1.000000
1.000000
1.000000
1.000000
1.000000
1.000000
1.000000
1.000000
1.000000
1.000000
1.000000
1.000000
1.000000
1.000000
1.000000
1.000000
1.000000
1.000000
1.000000
1.000000
1.000000
1.000000
1.000000
1.000000
1.000000
1.000000
1.000000
1.000000
1.000000
1.000000
1.000000
1.000000
1.000000
1.000000
1.000000
1.000000
1.000000
1.000000
1.000000
1.000000
1.000000
1.000000
1.000000
1.000000
1.000000
1.000000
1.000000
1.000000
1.000000
1.000000
1.000000
1.000000
1.000000
1.000000
1.000000
1.000000
1.000000
1.000000
1.000000
1.000000
1.000000
1.000000
1.000000
1.000000
1.000000
1.000000
1.000000
1.000000
1.000000
1.000000
1.000000
1.000000
1.000000
1.000000
1.000000
1.000000
1.000000
1.000000
1.000000
1.000000
1.000000
1.000000
1.000000
1.000000
1.000000
1.000000
1.000000
1.000000
1.000000
1.000000
1.000000
1.000000
1.000000
1.000000
1.000000
1.000000
1.000000
1.000000
1.000000
1.000000
1.000000
1.000000
1.000000
1.000000
1.000000
1.000000
1.000000
1.000000
1.000000
1.000000
1.000000
1.000000
1.000000
1.000000
1.000000
1.000000
1.000000
1.000000
1.000000
1.000000
1.000000
1.000000
1.000000
1.000000
1.000000
1.000000
1.000000
1.000000
1.000000
1.000000
1.000000
1.000000
1.000000
1.000000
1.000000
1.000000
1.000000
1.000000
1.000000
1.000000
1.000000
1.000000
1.000000
1.000000
1.000000
1.000000
1.000000
1.000000
1.000000
1.000000
1.000000
1.000000
1.000000
1.000000
1.000000
1.000000
1.000000
1.000000
1.000000
1.000000
1.000000
1.000000
1.000000
1.000000
1.000000
1.000000
1.000000
1.000000
1.000000
1.000000
1.000000
1.000000
1.000000
1.000000
1.000000
1.000000
1.000000
1.000000
1.000000
1.000000
1.000000
1.000000
1.000000
1.000000
1.000000
1.000000
1.000000
1.000000
1.000000
1.000000
1.000000
1.000000
1.000000
1.000000
1.000000
1.000000
1.000000
1.000000
1.000000
1.000000
1.000000
1.000000
1.000000
1.000000
1.000000
1.000000
1.000000
1.000000
1.000000
1.000000
1.000000
1.000000
1.000000
1.000000
1.000000
1.000000
1.000000
1.000000
1.000000
1.000000
1.000000
1.000000
1.000000
1.000000
1.000000
1.000000
1.000000
1.000000
1.000000
1.000000
1.000000
1.000000
1.000000
1.000000
1.000000
1.000000
1.000000
1.000000
1.000000
1.000000
1.000000
1.000000
1.000000
1.000000
1.000000
1.000000
1.000000
1.000000
1.000000
1.000000
1.000000
1.000000
1.000000
1.000000
1.000000
1.000000
1.000000
1.000000
1.000000
1.000000
1.000000
1.000000
1.000000
1.000000
1.000000
1.000000
1.000000
1.000000
1.000000
1.000000
1.000000
1.000000
1.000000
1.000000
1.000000
1.000000
1.000000
1.000000
1.000000
1.000000
1.000000
1.000000
1.000000
1.000000
1.000000
1.000000
1.000000
1.000000
1.000000
1.000000
1.000000
1.000000
1.000000
1.000000
1.000000
1.000000
1.000000
1.000000
1.000000
1.000000
1.000000
1.000000
1.000000
1.000000
1.000000
1.000000
1.000000
1.000000
1.000000
1.000000
1.000000
1.000000
1.000000
1.000000
1.000000
1.000000
1.000000
1.000000
1.000000
1.000000
1.000000
1.000000
1.000000
1.000000
1.000000
1.000000
1.000000
VECTORS v double
-8.245162 -13.688334 0.000000
3.125703 -3.782238 0.000000
0.129212 -1.129641 0.000000
1.879753 -4.327461 0.000000
-9.024285 -0.305479 0.000000
11.132862 -16.773120 0.000000
-14.085774 1.918192 0.000000
4.784896 -8.000749 0.000000
12.351407 -1.684830 0.000000
5.588069 -1.371948 0.000000
5.683998 -6.007082 0.000000
1.486250 0.981151 0.000000
6.883887 -7.380549 0.000000
-7.667487 5.052075 0.000000
-4.078366 0.475178 0.000000
-2.559157 -6.087017 0.000000
-16.866553 -1.212316 0.000000
9.356866 8.394811 0.000000
-2.402399 1.383784 0.000000
2.063373 -8.710998 0.000000
14.346288 0.864583 0.000000
7.150317 12.337986 0.000000
4.894942 -2.287472 0.000000
-4.506731 10.546451 0.000000
-1.399707 7.862674 0.000000
2.630965 -13.726701 0.000000
-7.910225 3.385491 0.000000
5.360458 -9.594512 0.000000
0.357372 -7.155269 0.000000
-5.981351 18.483444 0.000000
2.081836 -6.750525 0.000000
8.351943 -0.930509 0.000000
-4.521075 -9.025107 0.000000
5.232089 -6.217388 0.000000
-3.315609 2.836747 0.000000
4.286819 1.571262 0.000000
-0.488471 16.737891 0.000000
7.634225 8.042888 0.000000
8.844700 -4.384911 0.000000
9.624335 -4.142780 0.000000
-1.048388 2.566754 0.000000
15.290024 10.030482 0.000000
8.504838 -5.909552 0.000000
1.921036 -0.655395 0.000000
1.306074 0.133766 0.000000
-4.091177 6.968693 0.000000
11.424827 4.361741 0.000000
5.378801 9.558396 0.000000
-0.291941 7.856451 0.000000
2.630965 13.726701 0.000000
-0.082267 -9.567614 0.000000
-9.712134 4.498184 0.000000
-6.980669 -6.012442 0.000000
-2.439097 3.589996 0.000000
-15.044597 -6.979658 0.000000
-12.363298 -5.211931 0.000000
-3.982116 -5.205186 0.000000
-9.074237 3.631737 0.000000
7.980913 -0.941777 0.000000
3.532703 -11.277380 0.000000
-1.455687 18.751257 0.000000
-15.058447 0.219376 0.000000
1.103024 7.249591 0.000000
12.988270 1.950296 0.000000
-5.288230 -6.973484 0.000000
-6.785864 -8.117074 0.000000
0.334349 2.621553 0.000000
5.273403 6.493562 0.000000
-10.038882 5.247406 0.000000
8.752246 -6.686257 0.000000
-5.788420 -3.256758 0.000000
-15.748263 4.951884 0.000000
5.496672 1.997850 0.000000
-3.767994 10.001693 0.000000
-0.277779 9.466639 0.000000
3.154291 -10.534491 0.000000
6.835050 -10.617898 0.000000
-0.760859 -1.409577 0.000000
3.933401 -3.477895 0.000000
-4.329559 -7.966762 0.000000
4.555905 -2.059752 0.000000
-1.395755 0.480750 0.000000
-4.490700 0.908277 0.000000
-2.415927 -11.823458 0.000000
-5.876887 -14.306146 0.000000
-5.369413 -6.670908 0.000000
3.273705 10.514594 0.000000
9.997936 -3.384147 0.000000
9.158856 -4.591805 0.000000
8.775804 -10.807503 0.000000
1.942451 1.760736 0.000000
3.983383 5.010342 0.000000
-0.798556 -10.826857 0.000000
-5.348429 -2.382307 0.000000
-7.236003 -7.801912 0.000000
-0.680762 3.000634 0.000000
4.075810 7.443945 0.000000
4.958843 -8.168000 0.000000
6.835055 10.617898 0.000000
8.708838 6.205982 0.000000
-4.020316 -3.039912 0.000000
6.028441 -7.494613 0.000000
-5.169812 -11.750047 0.000000
0.503009 -15.199222 0.000000
9.873689 -3.668015 0.000000
-0.604374 5.127584 0.000000
0.709706 -0.761063 0.000000
12.608288 5.534780 0.000000
11.821265 -8.839792 0.000000
7.899459 -13.677888 0.000000
7.300842 4.036971 0.000000
-11.281716 -4.340698 0.000000
-1.943098 6.624843 0.000000
-3.195388 -0.612622 0.000000
-14.726051 14.292379 0.000000
9.920260 -9.607544 0.000000
-0.454480 -0.213016 0.000000
-5.029391 15.853708 0.000000
-1.853886 -4.542865 0.000000
0.442850 -0.701674 0.000000
5.777298 1.459674 0.000000
4.795992 -1.287693 0.000000
-1.142134 17.949748 0.000000
-1.235705 7.847907 0.000000
6.108343 6.403780 0.000000
1.289780 -6.369671 0.000000
-0.237781 -17.693206 0.000000
-2.681418 -2.698194 0.000000
0.682385 -13.727773 0.000000
-7.063836 1.907417 0.000000
4.123295 -2.504199 0.000000
-10.001153 -5.020357 0.000000
1.631745 -19.317296 0.000000
-10.105299 1.939727 0.000000
7.693750 -0.371984 0.000000
5.523830 -3.124351 0.000000
-4.232308 2.753470 0.000000
0.158686 -7.789532 0.000000
-0.502953 -12.964221 0.000000
-6.843522 3.042862 0.000000
4.145168 -10.060985 0.000000
-2.366208 8.298131 0.000000
-2.921457 -1.202020 0.000000
-4.963052 -5.559801 0.000000
-3.893617 7.896283 0.000000
-11.085923 -2.894700 0.000000
-5.537835 21.795568 0.000000
10.604082 -8.998519 0.000000
-1.995414 10.927773 0.000000
1.175811 6.272104 0.000000
-2.560024 -7.049879 0.000000
-0.250986 -18.097267 0.000000
3.175903 -10.667687 0.000000
2.511164 5.309420 0.000000
2.555571 -4.235827 0.000000
14.725327 -0.736839 0.000000
-1.615584 4.067873 0.000000
3.108638 10.724731 0.000000
-4.575324 -8.581079 0.000000
5.281475 -15.785667 0.000000
-8.533614 3.600575 0.000000
-6.267208 -2.541202 0.000000
-0.296026 0.548221 0.000000
-5.895446 -13.236258 0.000000
6.649459 6.285379 0.000000
9.320892 -4.357382 0.000000
2.270035 4.277377 0.000000
-3.826772 -6.195450 0.000000
-8.343645 0.171666 0.000000
3.444378 8.107966 0.000000
2.750232 15.417980 0.000000
4.207154 7.427564 0.000000
-2.239331 4.479745 0.000000
-7.462264 11.723730 0.000000
2.651014 7.002980 0.000000
4.837053 -9.997753 0.000000
-5.652591 -12.803166 0.000000
-5.702171 -6.813190 0.000000
-3.180041 -6.681048 0.000000
4.125668 1.620441 0.000000
7.072747 -8.015432 0.000000
4.925624 -2.402357 0.000000
-8.607786 4.383773 0.000000
-2.813876 -3.801274 0.000000
-4.139456 -0.248337 0.000000
-3.240972 -6.590801 0.000000
-3.538216 2.048677 0.000000
6.115277 10.796365 0.000000
-8.516824 8.545175 0.000000
-8.678755 -10.464867 0.000000
3.631000 -11.420884 0.000000
6.834676 -6.647527 0.000000
-8.164498 0.960545 0.000000
1.617068 11.613796 0.000000
-8.179749 3.721386 0.000000
1.210532 -11.059820 0.000000
5.795402 10.249856 0.000000
-1.179862 5.851242 0.000000
-7.732131 -3.911715 0.000000
4.837053 9.997753 0.000000
-2.945656 -4.334384 0.000000
11.868473 -4.529656 0.000000
6.594043 -14.973696 0.000000
2.492888 -1.752957 0.000000
5.150640 9.344170 0.000000
2.736470 -1.760623 0.000000
6.160448 11.058334 0.000000
-6.094008 -0.913386 0.000000
-1.969238 -12.221324 0.000000
-7.546932 -9.071563 0.000000
-2.069726 -11.767073 0.000000
-1.296803 -1.223619 0.000000
2.318359 -2.732927 0.000000
4.191912 5.637072 0.000000
-2.181778 9.741947 0.000000
-1.422360 -10.367737 0.000000
2.901048 0.888948 0.000000
1.947866 10.964956 0.000000
-2.273585 -4.662827 0.000000
-1.387229 4.770428 0.000000
3.935133 -2.744301 0.000000
-10.177652 6.796945 0.000000
0.924382 7.847885 0.000000
-14.081728 0.274896 0.000000
0.749177 7.928923 0.000000
-5.661510 -0.332577 0.000000
-3.935898 -8.249938 0.000000
-3.822448 -5.181923 0.000000
5.165327 -6.371082 0.000000
-2.479429 -6.722163 0.000000
3.997687 -1.887375 0.000000
4.490067 4.599633 0.000000
0.720950 6.418771 0.000000
-11.803755 9.902077 0.000000
-3.920560 8.391007 0.000000
-5.493262 -7.676938 0.000000
-0.461866 -9.510799 0.000000
-7.433954 -4.249774 0.000000
3.219149 -8.883605 0.000000
-0.520213 10.493274 0.000000
13.279668 3.034038 0.000000
2.696560 9.620279 0.000000
-9.393649 -3.431268 0.000000
-10.919919 4.018239 0.000000
-0.437907 -1.987314 0.000000
-1.984787 4.053169 0.000000
-10.854389 2.672248 0.000000
1.298665 3.937636 0.000000
-3.932881 8.250755 0.000000
-1.103033 -2.192501 0.000000
1.901091 0.366004 0.000000
5.490920 -5.649033 0.000000
-9.514840 4.835153 0.000000
-2.461320 -8.523286 0.000000
-5.981462 -11.655261 0.000000
10.481165 -5.859654 0.000000
-9.499036 9.825450 0.000000
-5.845166 4.871174 0.000000
-9.517666 -7.236441 0.000000
-3.942575 19.394470 0.000000
8.637231 1.104882 0.000000
9.119371 -17.234476 0.000000
2.527809 1.619178 0.000000
-1.282652 -3.368304 0.000000
0.351001 -2.470974 0.000000
0.665490 -2.300294 0.000000
4.743981 -4.766553 0.000000
-5.080324 1.735157 0.000000
-3.961631 0.740951 0.000000
-8.068399 18.280373 0.000000
-8.528582 -5.403801 0.000000
-7.904306 6.421011 0.000000
-3.961614 9.969995 0.000000
3.198573 9.763436 0.000000
9.499515 16.668291 0.000000
-3.964272 -16.010980 0.000000
-5.287253 -10.632714 0.000000
-4.856251 0.118810 0.000000
-1.152237 6.616457 0.000000
5.558872 13.561651 0.000000
-14.264204 7.161788 0.000000
0.649385 -4.004892 0.000000
-8.149369 3.384408 0.000000
-9.181834 -4.087849 0.000000
5.726186 -11.255079 0.000000
1.131464 -0.477985 0.000000
-1.648107 -5.225593 0.000000
-6.634668 11.461665 0.000000
-2.915921 5.010060 0.000000
2.070885 13.157563 0.000000
2.031739 10.669989 0.000000
-5.908552 24.168605 0.000000
3.458782 6.653104 0.000000
-13.452914 -0.568288 0.000000
2.263371 -0.782220 0.000000
-2.923766 6.217128 0.000000
-4.597728 3.953934 0.000000
-2.972577 2.909885 0.000000
2.152614 11.796783 0.000000
-2.566519 11.354538 0.000000
-7.190959 -7.871412 0.000000
8.596078 -7.982177 0.000000
-10.152311 -6.270569 0.000000
-7.154302 -6.197715 0.000000
-10.295025 -3.392674 0.000000