# vtk DataFile Version 4.0
hesp visualization file
ASCII
DATASET UNSTRUCTURED_GRID
POINTS 1250 double
30.245022 1.124606 4.000000
30.245030 2.244968 4.000000
30.245030 3.367386 4.000000
30.245030 4.489848 4.000000
30.245030 5.612310 4.000000
30.245030 6.734772 4.000000
30.245030 7.857234 4.000000
30.245030 8.979696 4.000000
30.245030 10.102158 4.000000
30.245030 11.224620 4.000000
30.245030 12.347083 4.000000
30.245030 13.469545 4.000000
30.245030 14.592007 4.000000
30.245030 15.714469 4.000000
30.245030 16.836931 4.000000
30.245030 17.959393 4.000000
30.245030 19.081855 4.000000
30.245030 20.204317 4.000000
30.245030 21.326779 4.000000
30.245030 22.449241 4.000000
30.245030 23.571703 4.000000
30.245030 24.694165 4.000000
30.245030 25.816627 4.000000
30.245030 26.939046 4.000000
30.245022 28.059407 4.000000
31.081665 1.118219 4.000000
31.081618 2.244811 4.000000
31.081618 3.367386 4.000000
31.081618 4.489848 4.000000
31.081618 5.612310 4.000000
31.081618 6.734772 4.000000
31.081618 7.857234 4.000000
31.081618 8.979696 4.000000
31.081618 10.102158 4.000000
31.081618 11.224620 4.000000
31.081618 12.347083 4.000000
31.081618 13.469545 4.000000
31.081618 14.592007 4.000000
31.081618 15.714469 4.000000
31.081618 16.836931 4.000000
31.081618 17.959393 4.000000
31.081618 19.081855 4.000000
31.081618 20.204317 4.000000
31.081618 21.326779 4.000000
31.081618 22.449241 4.000000
31.081618 23.571703 4.000000
31.081618 24.694165 4.000000
31.081618 25.816627 4.000000
31.081618 26.939202 4.000000
31.081665 28.065794 4.000000
31.571585 1.126640 4.000000
31.571639 2.245022 4.000000
31.571639 3.367386 4.000000
31.571639 4.489848 4.000000
31.571639 5.612310 4.000000
31.571639 6.734772 4.000000
31.571639 7.857234 4.000000
31.571639 8.979696 4.000000
31.571639 10.102158 4.000000
31.571639 11.224620 4.000000
31.571639 12.347083 4.000000
31.571639 13.469545 4.000000
31.571639 14.592007 4.000000
31.571639 15.714469 4.000000
31.571639 16.836931 4.000000
31.571639 17.959393 4.000000
31.571639 19.081855 4.000000
31.571639 20.204317 4.000000
31.571639 21.326779 4.000000
31.571639 22.449241 4.000000
31.571639 23.571703 4.000000
31.571639 24.694165 4.000000
31.571639 25.816627 4.000000
31.571639 26.938992 4.000000
31.571585 28.057373 4.000000
32.408247 1.121593 4.000000
32.408243 2.244894 4.000000
32.408243 3.367386 4.000000
32.408243 4.489848 4.000000
32.408243 5.612310 4.000000
32.408243 6.734772 4.000000
32.408243 7.857234 4.000000
32.408243 8.979696 4.000000
32.408243 10.102158 4.000000
32.408243 11.224620 4.000000
32.408243 12.347083 4.000000
32.408243 13.469545 4.000000
32.408243 14.592007 4.000000
32.408243 15.714469 4.000000
32.408243 16.836931 4.000000
32.408243 17.959393 4.000000
32.408243 19.081855 4.000000
32.408243 20.204317 4.000000
32.408243 21.326779 4.000000
32.408243 22.449241 4.000000
32.408243 23.571703 4.000000
32.408243 24.694165 4.000000
32.408243 25.816627 4.000000
32.408243 26.939119 4.000000
32.408247 28.062421 4.000000
32.897946 1.123511 4.000000
32.897945 2.244944 4.000000
32.897945 3.367386 4.000000
32.897945 4.489848 4.000000
32.897945 5.612310 4.000000
32.897945 6.734772 4.000000
32.897945 7.857234 4.000000
32.897945 8.979696 4.000000
32.897945 10.102158 4.000000
32.897945 11.224620 4.000000
32.897945 12.347083 4.000000
32.897945 13.469545 4.000000
32.897945 14.592007 4.000000
32.897945 15.714469 4.000000
32.897945 16.836931 4.000000
32.897945 17.959393 4.000000
32.897945 19.081855 4.000000
32.897945 20.204317 4.000000
32.897945 21.326779 4.000000
32.897945 22.449241 4.000000
32.897945 23.571703 4.000000
32.897945 24.694165 4.000000
32.897945 25.816627 4.000000
32.897945 26.939070 4.000000
32.897946 28.060503 4.000000
33.734770 1.122859 4.000000
33.734770 2.244927 4.000000
33.734770 3.367386 4.000000
33.734770 4.489848 4.000000
33.734770 5.612310 4.000000
33.734770 6.734772 4.000000
33.734770 7.857234 4.000000
33.734770 8.979696 4.000000
33.734770 10.102158 4.000000
33.734770 11.224620 4.000000
33.734770 12.347083 4.000000
33.734770 13.469545 4.000000
33.734770 14.592007 4.000000
33.734770 15.714469 4.000000
33.734770 16.836931 4.000000
33.734770 17.959393 4.000000
33.734770 19.081855 4.000000
33.734770 20.204317 4.000000
33.734770 21.326779 4.000000
33.734770 22.449241 4.000000
33.734770 23.571703 4.000000
33.734770 24.694165 4.000000
33.734770 25.816627 4.000000
33.734770 26.939087 4.000000
33.734770 28.061154 4.000000
34.857234 1.122859 4.000000
34.857234 2.244927 4.000000
34.857234 3.367386 4.000000
34.857234 4.489848 4.000000
34.857234 5.612310 4.000000
34.857234 6.734772 4.000000
34.857234 7.857234 4.000000
34.857234 8.979696 4.000000
34.857234 10.102158 4.000000
34.857234 11.224620 4.000000
34.857234 12.347083 4.000000
34.857234 13.469545 4.000000
34.857234 14.592007 4.000000
34.857234 15.714469 4.000000
34.857234 16.836931 4.000000
34.857234 17.959393 4.000000
34.857234 19.081855 4.000000
34.857234 20.204317 4.000000
34.857234 21.326779 4.000000
34.857234 22.449241 4.000000
34.857234 23.571703 4.000000
34.857234 24.694165 4.000000
34.857234 25.816627 4.000000
34.857234 26.939087 4.000000
34.857234 28.061154 4.000000
35.979696 1.122859 4.000000
35.979696 2.244927 4.000000
35.979696 3.367386 4.000000
35.979696 4.489848 4.000000
35.979696 5.612310 4.000000
35.979696 6.734772 4.000000
35.979696 7.857234 4.000000
35.979696 8.979696 4.000000
35.979696 10.102158 4.000000
35.979696 11.224620 4.000000
35.979696 12.347083 4.000000
35.979696 13.469545 4.000000
35.979696 14.592007 4.000000
35.979696 15.714469 4.000000
35.979696 16.836931 4.000000
35.979696 17.959393 4.000000
35.979696 19.081855 4.000000
35.979696 20.204317 4.000000
35.979696 21.326779 4.000000
35.979696 22.449241 4.000000
35.979696 23.571703 4.000000
35.979696 24.694165 4.000000
35.979696 25.816627 4.000000
35.979696 26.939087 4.000000
35.979696 28.061154 4.000000
37.102158 1.122859 4.000000
37.102158 2.244927 4.000000
37.102158 3.367386 4.000000
37.102158 4.489848 4.000000
37.102158 5.612310 4.000000
37.102158 6.734772 4.000000
37.102158 7.857234 4.000000
37.102158 8.979696 4.000000
37.102158 10.102158 4.000000
37.102158 11.224620 4.000000
37.102158 12.347083 4.000000
37.102158 13.469545 4.000000
37.102158 14.592007 4.000000
37.102158 15.714469 4.000000
37.102158 16.836931 4.000000
37.102158 17.959393 4.000000
37.102158 19.081855 4.000000
37.102158 20.204317 4.000000
37.102158 21.326779 4.000000
37.102158 22.449241 4.000000
37.102158 23.571703 4.000000
37.102158 24.694165 4.000000
37.102158 25.816627 4.000000
37.102158 26.939087 4.000000
37.102158 28.061154 4.000000
38.224620 1.122859 4.000000
38.224620 2.244927 4.000000
38.224620 3.367386 4.000000
38.224620 4.489848 4.000000
38.224620 5.612310 4.000000
38.224620 6.734772 4.000000
38.224620 7.857234 4.000000
38.224620 8.979696 4.000000
38.224620 10.102158 4.000000
38.224620 11.224620 4.000000
38.224620 12.347083 4.000000
38.224620 13.469545 4.000000
38.224620 14.592007 4.000000
38.224620 15.714469 4.000000
38.224620 16.836931 4.000000
38.224620 17.959393 4.000000
38.224620 19.081855 4.000000
38.224620 20.204317 4.000000
38.224620 21.326779 4.000000
38.224620 22.449241 4.000000
38.224620 23.571703 4.000000
38.224620 24.694165 4.000000
38.224620 25.816627 4.000000
38.224620 26.939087 4.000000
38.224620 28.061154 4.000000
39.347083 1.122859 4.000000
39.347083 2.244927 4.000000
39.347083 3.367386 4.000000
39.347083 4.489848 4.000000
39.347083 5.612310 4.000000
39.347083 6.734772 4.000000
39.347083 7.857234 4.000000
39.347083 8.979696 4.000000
39.347083 10.102158 4.000000
39.347083 11.224620 4.000000
39.347083 12.347083 4.000000
39.347083 13.469545 4.000000
39.347083 14.592007 4.000000
39.347083 15.714469 4.000000
39.347083 16.836931 4.000000
39.347083 17.959393 4.000000
39.347083 19.081855 4.000000
39.347083 20.204317 4.000000
39.347083 21.326779 4.000000
39.347083 22.449241 4.000000
39.347083 23.571703 4.000000
39.347083 24.694165 4.000000
39.347083 25.816627 4.000000
39.347083 26.939087 4.000000
39.347083 28.061154 4.000000
40.469545 1.122859 4.000000
40.469545 2.244927 4.000000
40.469545 3.367386 4.000000
40.469545 4.489848 4.000000
40.469545 5.612310 4.000000
40.469545 6.734772 4.000000
40.469545 7.857234 4.000000
40.469545 8.979696 4.000000
40.469545 10.102158 4.000000
40.469545 11.224620 4.000000
40.469545 12.347083 4.000000
40.469545 13.469545 4.000000
40.469545 14.592007 4.000000
40.469545 15.714469 4.000000
40.469545 16.836931 4.000000
40.469545 17.959393 4.000000
40.469545 19.081855 4.000000
40.469545 20.204317 4.000000
40.469545 21.326779 4.000000
40.469545 22.449241 4.000000
40.469545 23.571703 4.000000
40.469545 24.694165 4.000000
40.469545 25.816627 4.000000
40.469545 26.939087 4.000000
40.469545 28.061154 4.000000
41.592007 1.122859 4.000000
41.592007 2.244927 4.000000
41.592007 3.367386 4.000000
41.592007 4.489848 4.000000
41.592007 5.612310 4.000000
41.592007 6.734772 4.000000
41.592007 7.857234 4.000000
41.592007 8.979696 4.000000
41.592007 10.102158 4.000000
41.592007 11.224620 4.000000
41.592007 12.347083 4.000000
41.592007 13.469545 4.000000
41.592007 14.592007 4.000000
41.592007 15.714469 4.000000
41.592007 16.836931 4.000000
41.592007 17.959393 4.000000
41.592007 19.081855 4.000000
41.592007 20.204317 4.000000
41.592007 21.326779 4.000000
41.592007 22.449241 4.000000
41.592007 23.571703 4.000000
41.592007 24.694165 4.000000
41.592007 25.816627 4.000000
41.592007 26.939087 4.000000
41.592007 28.061154 4.000000
42.714469 1.122859 4.000000
42.714469 2.244927 4.000000
42.714469 3.367386 4.000000
42.714469 4.489848 4.000000
42.714469 5.612310 4.000000
42.714469 6.734772 4.000000
42.714469 7.857234 4.000000
42.714469 8.979696 4.000000
42.714469 10.102158 4.000000
42.714469 11.224620 4.000000
42.714469 12.347083 4.000000
42.714469 13.469545 4.000000
42.714469 14.592007 4.000000
42.714469 15.714469 4.000000
42.714469 16.836931 4.000000
42.714469 17.959393 4.000000
42.714469 19.081855 4.000000
42.714469 20.204317 4.000000
42.714469 21.326779 4.000000
42.714469 22.449241 4.000000
[...]
POINT_DATA 1250
SCALARS m double
LOOKUP_TABLE default
1.000000
1.000000
1.000000
1.000000
1.000000
1.000000
1.000000
1.000000
1.000000
1.000000
1.000000
1.000000
1.000000
1.000000
1.000000
1.000000
1.000000
1.000000
1.000000
1.000000
1.000000
1.000000
1.000000
1.000000
1.000000
1.000000
1.000000
1.000000
1.000000
1.000000
1.000000
1.000000
1.000000
1.000000
1.000000
1.000000
1.000000
1.000000
1.000000
1.000000
1.000000
1.000000
1.000000
1.000000
1.000000
1.000000
1.000000
1.000000
1.000000
1.000000
1.000000
1.000000
1.000000
1.000000
1.000000
1.000000
1.000000
1.000000
1.000000
1.000000
1.000000
1.000000
1.000000
1.000000
1.000000
1.000000
1.000000
1.000000
1.000000
1.000000
1.000000
1.000000
1.000000
1.000000
1.000000
1.000000
1.000000
1.000000
1.000000
1.000000
1.000000
1.000000
1.000000
1.000000
1.000000
1.000000
1.000000
1.000000
1.000000
1.000000
1.000000
1.000000
1.000000
1.000000
1.000000
1.000000
1.000000
1.000000
1.000000
1.000000
1.000000
1.000000
1.000000
1.000000
1.000000
1.000000
1.000000
1.000000
1.000000
1.000000
1.000000
1.000000
1.000000
1.000000
1.000000
1.000000
1.000000
1.000000
1.000000
1.000000
1.000000
1.000000
1.000000
1.000000
1.000000
1.000000
1.000000
1.000000
1.000000
1.000000
1.000000
1.000000
1.000000
1.000000
1.000000
1.000000
1.000000
1.000000
1.000000
1.000000
1.000000
1.000000
1.000000
1.000000
1.000000
1.000000
1.000000
1.000000
1.000000
1.000000
1.000000
1.000000
1.000000
1.000000
1.000000
1.000000
1.000000
1.000000
1.000000
1.000000
1.000000
1.000000
1.000000
1.000000
1.000000
1.000000
1.000000
1.000000
1.000000
1.000000
1.000000
1.000000
1.000000
1.000000
1.000000
1.000000
1.000000
1.000000
1.000000
1.000000
1.000000
1.000000
1.000000
1.000000
1.000000
1.000000
1.000000
1.000000
1.000000
1.000000
1.000000
1.000000
1.000000
1.000000
1.000000
1.000000
1.000000
1.000000
1.000000
1.000000
1.000000
1.000000
1.000000
1.000000
1.000000
1.000000
1.000000
1.000000
1.000000
1.000000
1.000000
1.000000
1.000000
1.000000
1.000000
1.000000
1.000000
1.000000
1.000000
1.000000
1.000000
1.000000
1.000000
1.000000
1.000000
1.000000
1.000000
1.000000
1.000000
1.000000
1.000000
1.000000
1.000000
1.000000
1.000000
1.000000
1.000000
1.000000
1.000000
1.000000
1.000000
1.000000
1.000000
1.000000
1.000000
1.000000
1.000000
1.000000
1.000000
1.000000
1.000000
1.000000
1.000000
1.000000
1.000000
1.000000
1.000000
1.000000
1.000000
1.000000
1.000000
1.000000
1.000000
1.000000
1.000000
1.000000
1.000000
1.000000
1.000000
1.000000
1.000000
1.000000
1.000000
1.000000
1.000000
1.000000
1.000000
1.000000
1.000000
1.000000
1.000000
1.000000
1.000000
1.000000
1.000000
1.000000
1.000000
1.000000
1.000000
1.000000
1.000000
1.000000
1.000000
1.000000
1.000000
1.000000
1.000000
1.000000
1.000000
1.000000
1.000000
1.000000
1.000000
1.000000
1.000000
1.000000
1.000000
1.000000
1.000000
1.000000
1.000000
1.000000
1.000000
1.000000
1.000000
1.000000
1.000000
1.000000
1.000000
1.000000
1.000000
1.000000
1.000000
1.000000
1.000000
1.000000
1.000000
1.000000
1.000000
1.000000
1.000000
1.000000
1.000000
1.000000
1.000000
1.000000
1.000000
1.000000
1.000000
1.000000
1.000000
1.000000
1.000000
1.000000
1.000000
1.000000
1.000000
1.000000
1.000000
1.000000
1.000000
1.000000
1.000000
1.000000
1.000000
1.000000
1.000000
1.000000
1.000000
1.000000
1.000000
1.000000
1.000000
1.000000
1.000000
1.000000
1.000000
1.000000
1.000000
1.000000
1.000000
1.000000
1.000000
1.000000
1.000000
1.000000
1.000000
1.000000
1.000000
1.000000
1.000000
1.000000
1.000000
1.000000
1.000000
1.000000
1.000000
1.000000
1.000000
1.000000
1.000000
1.000000
1.000000
1.000000
1.000000
1.000000
1.000000
1.000000
1.000000
1.000000
1.000000
1.000000
1.000000
1.000000
1.000000
1.000000
1.000000
1.000000
1.000000
1.000000
1.000000
1.000000
1.000000
1.000000
1.000000
1.000000
1.000000
1.000000
1.000000
1.000000
1.000000
1.000000
1.000000
1.000000
1.000000
1.000000
1.000000
1.000000
1.000000
1.000000
1.000000
1.000000
1.000000
1.000000
1.000000
1.000000
1.000000
1.000000
1.000000
1.000000
1.000000
1.000000
1.000000
1.000000
1.000000
1.000000
1.000000
1.000000
1.000000
1.000000
1.000000
1.000000
1.000000
1.000000
1.000000
1.000000
1.000000
1.000000
1.000000
1.000000
1.000000
1.000000
1.000000
1.000000
1.000000
1.000000
1.000000
1.000000
1.000000
1.000000
1.000000
1.000000
1.000000
1.000000
1.000000
1.000000
1.000000
1.000000
1.000000
1.000000
1.000000
1.000000
1.000000
1.000000
1.000000
1.000000
1.000000
1.000000
1.000000
1.000000
1.000000
1.000000
1.000000
1.000000
1.000000
1.000000
1.000000
1.000000
1.000000
1.000000
1.000000
1.000000
1.000000
1.000000
1.000000
1.000000
1.000000
1.000000
1.000000
1.000000
1.000000
1.000000
1.000000
1.000000
1.000000
1.000000
1.000000
1.000000
1.000000
1.000000
1.000000
1.000000
1.000000
1.000000
1.000000
1.000000
1.000000
1.000000
1.000000
1.000000
1.000000
1.000000
1.000000
1.000000
1.000000
1.000000
1.000000
1.000000
1.000000
1.000000
1.000000
1.000000
1.000000
1.000000
1.000000
1.000000
1.000000
1.000000
1.000000
1.000000
1.000000
1.000000
1.000000
1.000000
1.000000
1.000000
1.000000
1.000000
1.000000
1.000000
1.000000
1.000000
1.000000
1.000000
1.000000
1.000000
1.000000
1.000000
1.000000
1.000000
1.000000
1.000000
1.000000
1.000000
1.000000
1.000000
1.000000
1.000000
1.000000
1.000000
1.000000
1.000000
1.000000
1.000000
1.000000
1.000000
1.000000
1.000000
1.000000
1.000000
1.000000
1.000000
1.000000
1.000000
1.000000
1.000000
1.000000
1.000000
1.000000
1.000000
1.000000
1.000000
1.000000
1.000000
1.000000
1.000000
1.000000
1.000000
1.000000
1.000000
1.000000
1.000000
1.000000
1.000000
1.000000
1.000000
1.000000
1.000000
1.000000
1.000000
1.000000
1.000000
1.000000
1.000000
1.000000
1.000000
1.000000
1.000000
1.000000
1.000000
1.000000
1.000000
1.000000
1.000000
1.000000
1.000000
1.000000
1.000000
1.000000
1.000000
1.000000
1.000000
1.000000
1.000000
1.000000
1.000000
1.000000
1.000000
1.000000
1.000000
1.000000
1.000000
1.000000
1.000000
1.000000
1.000000
1.000000
1.000000
1.000000
1.000000
1.000000
1.000000
1.000000
1.000000
1.000000
1.000000
1.000000
1.000000
1.000000
1.000000
1.000000
1.000000
1.000000
1.000000
1.000000
1.000000
1.000000
1.000000
1.000000
1.000000
1.000000
1.000000
1.000000
1.000000
1.000000
1.000000
1.000000
1.000000
1.000000
1.000000
1.000000
1.000000
1.000000
1.000000
1.000000
1.000000
1.000000
1.000000
1.000000
1.000000
1.000000
1.000000
1.000000
1.000000
1.000000
1.000000
1.000000
1.000000
1.000000
1.000000
1.000000
1.000000
1.000000
1.000000
1.000000
1.000000
1.000000
1.000000
1.000000
1.000000
1.000000
1.000000
1.000000
1.000000
1.000000
1.000000
1.000000
1.000000
1.000000
1.000000
1.000000
1.000000
1.000000
1.000000
1.000000
1.000000
1.000000
1.000000
1.000000
1.000000
1.000000
1.000000
1.000000
1.000000
1.000000
1.000000
1.000000
1.000000
1.000000
1.000000
1.000000
1.000000
1.000000
1.000000
1.000000
1.000000
1.000000
1.000000
1.000000
1.000000
1.000000
1.000000
1.000000
1.000000
1.000000
1.000000
1.000000
1.000000
1.000000
1.000000
1.000000
1.000000
1.000000
1.000000
1.000000
1.000000
1.000000
1.000000
1.000000
1.000000
1.000000
1.000000
1.000000
1.000000
1.000000
1.000000
1.000000
1.000000
1.000000
1.000000
1.000000
1.000000
1.000000
1.000000
1.000000
1.000000
1.000000
1.000000
1.000000
1.000000
1.000000
1.000000
1.000000
1.000000
1.000000
1.000000
1.000000
1.000000
1.000000
1.000000
1.000000
1.000000
1.000000
1.000000
1.000000
1.000000
1.000000
1.000000
1.000000
1.000000
1.000000
1.000000
1.000000
1.000000
1.000000
1.000000
1.000000
1.000000
1.000000
1.000000
1.000000
1.000000
1.000000
1.000000
1.000000
1.000000
1.000000
1.000000
1.000000
1.000000
1.000000
1.000000
1.000000
1.000000
1.000000
1.000000
1.000000
1.000000
1.000000
1.000000
1.000000
1.000000
1.000000
1.000000
1.000000
1.000000
1.000000
1.000000
1.000000
1.000000
1.000000
1.000000
1.000000
1.000000
1.000000
1.000000
1.000000
1.000000
1.000000
1.000000
1.000000
1.000000
1.000000
1.000000
1.000000
1.000000
1.000000
1.000000
1.000000
1.000000
1.000000
1.000000
1.000000
1.000000
1.000000
1.000000
1.000000
1.000000
1.000000
1.000000
1.000000
1.000000
1.000000
1.000000
1.000000
1.000000
1.000000
1.000000
1.000000
1.000000
1.000000
1.000000
1.000000
1.000000
1.000000
1.000000
1.000000
1.000000
1.000000
1.000000
1.000000
1.000000
1.000000
1.000000
1.000000
1.000000
1.000000
1.000000
1.000000
1.000000
1.000000
1.000000
1.000000
1.000000
1.000000
1.000000
1.000000
1.000000
1.000000
1.000000
1.000000
1.000000
1.000000
1.000000
1.000000
1.000000
1.000000
1.000000
1.000000
1.000000
1.000000
1.000000
1.000000
1.000000
1.000000
1.000000
1.000000
1.000000
1.000000
1.000000
1.000000
1.000000
1.000000
1.000000
1.000000
1.000000
1.000000
1.000000
1.000000
1.000000
1.000000
1.000000
1.000000
1.000000
1.000000
1.000000
1.000000
1.000000
1.000000
1.000000
1.000000
1.000000
1.000000
1.000000
1.000000
1.000000
1.000000
1.000000
1.000000
1.000000
1.000000
1.000000
1.000000
1.000000
1.000000
1.000000
1.000000
1.000000
1.000000
1.000000
1.000000
1.000000
1.000000
1.000000
1.000000
1.000000
1.000000
1.000000
1.000000
1.000000
1.000000
1.000000
1.000000
1.000000
1.000000
1.000000
1.000000
1.000000
1.000000
1.000000
1.000000
1.000000
1.000000
1.000000
1.000000
1.000000
1.000000
1.000000
1.000000
1.000000
1.000000
1.000000
1.000000
1.000000
1.000000
1.000000
1.000000
1.000000
1.000000
1.000000
1.000000
1.000000
1.000000
1.000000
1.000000
1.000000
1.000000
1.000000
1.000000
1.000000
1.000000
1.000000
1.000000
1.000000
1.000000
1.000000
1.000000
1.000000
1.000000
1.000000
1.000000
1.000000
1.000000
1.000000
1.000000
1.000000
1.000000
1.000000
1.000000
1.000000
1.000000
1.000000
1.000000
1.000000
1.000000
1.000000
1.000000
1.000000
1.000000
1.000000
1.000000
1.000000
1.000000
1.000000
1.000000
1.000000
1.000000
1.000000
1.000000
1.000000
1.000000
1.000000
1.000000
1.000000
1.000000
1.000000
1.000000
1.000000
1.000000
1.000000
1.000000
1.000000
1.000000
1.000000
1.000000
1.000000
1.000000
1.000000
1.000000
1.000000
1.000000
1.000000
1.000000
1.000000
1.000000
1.000000
1.000000
1.000000
1.000000
1.000000
1.000000
1.000000
1.000000
1.000000
1.000000
1.000000
1.000000
1.000000
1.000000
1.000000
1.000000
1.000000
1.000000
1.000000
1.000000
1.000000
1.000000
1.000000
1.000000
1.000000
1.000000
1.000000
1.000000
1.000000
1.000000
1.000000
1.000000
1.000000
1.000000
1.000000
1.000000
1.000000
1.000000
1.000000
1.000000
1.000000
1.000000
1.000000
1.000000
1.000000
1.000000
1.000000
1.000000
1.000000
1.000000
1.000000
1.000000
1.000000
1.000000
1.000000
1.000000
1.000000
1.000000
1.000000
1.000000
1.000000
1.000000
1.000000
1.000000
1.000000
1.000000
1.000000
1.000000
1.000000
1.000000
1.000000
1.000000
1.000000
1.000000
1.000000
1.000000
1.000000
1.000000
1.000000
1.000000
1.000000
1.000000
1.000000
1.000000
1.000000
1.000000
1.000000
1.000000
1.000000
1.000000
1.000000
1.000000
1.000000
1.000000
1.000000
1.000000
1.000000
1.000000
1.000000
1.000000
1.000000
1.000000
1.000000
1.000000
1.000000
1.000000
1.000000
1.000000
1.000000
1.000000
1.000000
1.000000
1.000000
1.000000
1.000000
1.000000
1.000000
1.000000
1.000000
1.000000
1.000000
1.000000
1.000000
1.000000
1.000000
1.000000
1.000000
1.000000
1.000000
1.000000
1.000000
1.000000
1.000000
1.000000
1.000000
1.000000
1.000000
1.000000
1.000000
1.000000
1.000000
1.000000
1.000000
1.000000
1.000000
VECTORS v double
10.013300 0.029736 0.000000
10.013378 0.000654 0.000000
10.013379 -0.000000 0.000000
10.013379 -0.000000 0.000000
10.013379 0.000000 0.000000
10.013379 0.000000 0.000000
10.013379 -0.000000 0.000000
10.013379 -0.000000 0.000000
10.013379 0.000000 0.000000
10.013379 -0.000000 0.000000
10.013379 -0.000000 0.000000
10.013379 0.000000 0.000000
10.013379 -0.000000 0.000000
10.013379 -0.000000 0.000000
10.013379 -0.000000 0.000000
10.013379 0.000000 0.000000
10.013379 -0.000000 0.000000
10.013379 -0.000000 0.000000
10.013379 0.000000 0.000000
10.013379 0.000000 0.000000
10.013379 -0.000000 0.000000
10.013379 0.000000 0.000000
10.013379 0.000000 0.000000
10.013378 -0.000654 0.000000
10.013300 -0.029736 0.000000
-10.010012 -0.227673 0.000000
-10.012529 -0.005737 0.000000
-10.012531 0.000001 0.000000
-10.012531 0.000000 0.000000
-10.012531 0.000000 0.000000
-10.012531 0.000000 0.000000
-10.012531 -0.000000 0.000000
-10.012531 -0.000000 0.000000
-10.012531 0.000000 0.000000
-10.012531 -0.000000 0.000000
-10.012531 -0.000000 0.000000
-10.012531 0.000000 0.000000
-10.012531 -0.000000 0.000000
-10.012531 -0.000000 0.000000
-10.012531 -0.000000 0.000000
-10.012531 0.000000 0.000000
-10.012531 -0.000000 0.000000
-10.012531 -0.000000 0.000000
-10.012531 0.000000 0.000000
-10.012531 0.000000 0.000000
-10.012531 -0.000000 0.000000
-10.012531 -0.000000 0.000000
-10.012531 -0.000001 0.000000
-10.012529 0.005737 0.000000
-10.010012 0.227673 0.000000
10.011154 0.219311 0.000000
10.013705 0.005444 0.000000
10.013707 -0.000001 0.000000
10.013707 -0.000000 0.000000
10.013707 0.000000 0.000000
10.013707 -0.000000 0.000000
10.013707 -0.000000 0.000000
10.013707 -0.000000 0.000000
10.013707 0.000000 0.000000
10.013707 -0.000000 0.000000
10.013707 0.000000 0.000000
10.013707 0.000000 0.000000
10.013707 -0.000000 0.000000
10.013707 -0.000000 0.000000
10.013707 -0.000000 0.000000
10.013707 0.000000 0.000000
10.013707 -0.000000 0.000000
10.013707 -0.000000 0.000000
10.013707 0.000000 0.000000
10.013707 0.000000 0.000000
10.013707 -0.000000 0.000000
10.013707 0.000000 0.000000
10.013707 0.000001 0.000000
10.013705 -0.005444 0.000000
10.011154 -0.219311 0.000000
-10.011246 -0.053429 0.000000
-10.011417 -0.001438 0.000000
-10.011418 0.000000 0.000000
-10.011418 0.000000 0.000000
-10.011418 0.000000 0.000000
-10.011418 0.000000 0.000000
-10.011418 -0.000000 0.000000
-10.011418 -0.000000 0.000000
-10.011418 0.000000 0.000000
-10.011418 -0.000000 0.000000
-10.011418 -0.000000 0.000000
-10.011418 0.000000 0.000000
-10.011418 -0.000000 0.000000
-10.011418 -0.000000 0.000000
-10.011418 -0.000000 0.000000
-10.011418 0.000000 0.000000
-10.011418 -0.000000 0.000000
-10.011418 -0.000000 0.000000
-10.011418 0.000000 0.000000
-10.011418 0.000000 0.000000
-10.011418 -0.000000 0.000000
-10.011418 -0.000000 0.000000
-10.011418 -0.000000 0.000000
-10.011417 0.001438 0.000000
-10.011246 0.053429 0.000000
10.012197 0.048745 0.000000
10.012296 0.001208 0.000000
10.012297 -0.000000 0.000000
10.012297 -0.000000 0.000000
10.012297 0.000000 0.000000
10.012297 0.000000 0.000000
10.012297 -0.000000 0.000000
10.012297 -0.000000 0.000000
10.012297 0.000000 0.000000
10.012297 -0.000000 0.000000
10.012297 0.000000 0.000000
10.012297 0.000000 0.000000
10.012297 -0.000000 0.000000
10.012297 -0.000000 0.000000
10.012297 -0.000000 0.000000
10.012297 0.000000 0.000000
10.012297 -0.000000 0.000000
10.012297 -0.000000 0.000000
10.012297 0.000000 0.000000
10.012297 0.000000 0.000000
10.012297 -0.000000 0.000000
10.012297 0.000000 0.000000
10.012297 0.000000 0.000000
10.012296 -0.001208 0.000000
10.012197 -0.048745 0.000000
-10.000312 0.002661 0.000000
-10.000324 0.000017 0.000000
-10.000324 -0.000000 0.000000
-10.000324 -0.000000 0.000000
-10.000324 0.000000 0.000000
-10.000324 0.000000 0.000000
-10.000324 -0.000000 0.000000
-10.000324 -0.000000 0.000000
-10.000324 0.000000 0.000000
-10.000324 -0.000000 0.000000
-10.000324 -0.000000 0.000000
-10.000324 0.000000 0.000000
-10.000324 -0.000000 0.000000
-10.000324 -0.000000 0.000000
-10.000324 -0.000000 0.000000
-10.000324 0.000000 0.000000
-10.000324 -0.000000 0.000000
-10.000324 -0.000000 0.000000
-10.000324 0.000000 0.000000
-10.000324 0.000000 0.000000
-10.000324 -0.000000 0.000000
-10.000324 0.000000 0.000000
-10.000324 0.000000 0.000000
-10.000324 -0.000017 0.000000
-10.000312 -0.002661 0.000000
-10.000002 0.002649 0.000000
-10.000002 0.000016 0.000000
-10.000002 -0.000000 0.000000
-10.000002 -0.000000 0.000000
-10.000002 0.000000 0.000000
-10.000002 0.000000 0.000000
-10.000002 -0.000000 0.000000
-10.000002 -0.000000 0.000000
-10.000002 0.000000 0.000000
-10.000002 -0.000000 0.000000
-10.000002 -0.000000 0.000000
-10.000002 0.000000 0.000000
-10.000002 -0.000000 0.000000
-10.000002 -0.000000 0.000000
-10.000002 -0.000000 0.000000
-10.000002 0.000000 0.000000
-10.000002 -0.000000 0.000000
-10.000002 -0.000000 0.000000
-10.000002 0.000000 0.000000
-10.000002 0.000000 0.000000
-10.000002 -0.000000 0.000000
-10.000002 0.000000 0.000000
-10.000002 0.000000 0.000000
-10.000002 -0.000016 0.000000
-10.000002 -0.002649 0.000000
-10.000000 0.002649 0.000000
-10.000000 0.000016 0.000000
-10.000000 -0.000000 0.000000
-10.000000 -0.000000 0.000000
-10.000000 0.000000 0.000000
-10.000000 0.000000 0.000000
-10.000000 -0.000000 0.000000
-10.000000 -0.000000 0.000000
-10.000000 0.000000 0.000000
-10.000000 -0.000000 0.000000
-10.000000 -0.000000 0.000000
-10.000000 0.000000 0.000000
-10.000000 -0.000000 0.000000
-10.000000 -0.000000 0.000000
-10.000000 -0.000000 0.000000
-10.000000 0.000000 0.000000
-10.000000 -0.000000 0.000000
-10.000000 -0.000000 0.000000
-10.000000 0.000000 0.000000
-10.000000 0.000000 0.000000
-10.000000 -0.000000 0.000000
-10.000000 0.000000 0.000000
-10.000000 0.000000 0.000000
-10.000000 -0.000016 0.000000
-10.000000 -0.002649 0.000000
-10.000000 0.002649 0.000000
-10.000000 0.000016 0.000000
-10.000000 -0.000000 0.000000
-10.000000 -0.000000 0.000000
-10.000000 0.000000 0.000000
-10.000000 0.000000 0.000000
-10.000000 -0.000000 0.000000
-10.000000 -0.000000 0.000000
-10.000000 0.000000 0.000000
-10.000000 -0.000000 0.000000
-10.000000 0.000000 0.000000
-10.000000 0.000000 0.000000
-10.000000 -0.000000 0.000000
-10.000000 -0.000000 0.000000
-10.000000 -0.000000 0.000000
-10.000000 0.000000 0.000000
-10.000000 -0.000000 0.000000
-10.000000 -0.000000 0.000000
-10.000000 0.000000 0.000000
-10.000000 0.000000 0.000000
-10.000000 -0.000000 0.000000
-10.000000 0.000000 0.000000
-10.000000 0.000000 0.000000
-10.000000 -0.000016 0.000000
-10.000000 -0.002649 0.000000
-10.000000 0.002649 0.000000
-10.000000 0.000016 0.000000
-10.000000 -0.000000 0.000000
-10.000000 -0.000000 0.000000
-10.000000 0.000000 0.000000
-10.000000 0.000000 0.000000
-10.000000 -0.000000 0.000000
-10.000000 -0.000000 0.000000
-10.000000 0.000000 0.000000
-10.000000 -0.000000 0.000000
-10.000000 -0.000000 0.000000
-10.000000 0.000000 0.000000
-10.000000 -0.000000 0.000000
-10.000000 -0.000000 0.000000
-10.000000 -0.000000 0.000000
-10.000000 0.000000 0.000000
-10.000000 -0.000000 0.000000
-10.000000 -0.000000 0.000000
-10.000000 0.000000 0.000000
-10.000000 0.000000 0.000000
-10.000000 -0.000000 0.000000
-10.000000 0.000000 0.000000
-10.000000 0.000000 0.000000
-10.000000 -0.000016 0.000000
-10.000000 -0.002649 0.000000
-10.000000 0.002649 0.000000
-10.000000 0.000016 0.000000
-10.000000 -0.000000 0.000000
-10.000000 -0.000000 0.000000
-10.000000 0.000000 0.000000
-10.000000 0.000000 0.000000
-10.000000 -0.000000 0.000000
-10.000000 -0.000000 0.000000
-10.000000 0.000000 0.000000
-10.000000 -0.000000 0.000000
-10.000000 -0.000000 0.000000
-10.000000 0.000000 0.000000
-10.000000 -0.000000 0.000000
-10.000000 -0.000000 0.000000
-10.000000 -0.000000 0.000000
-10.000000 0.000000 0.000000
-10.000000 -0.000000 0.000000
-10.000000 -0.000000 0.000000
-10.000000 0.000000 0.000000
-10.000000 0.000000 0.000000
-10.000000 -0.000000 0.000000
-10.000000 0.000000 0.000000
-10.000000 0.000000 0.000000
-10.000000 -0.000016 0.000000
-10.000000 -0.002649 0.000000
-10.000000 0.002649 0.000000
-10.000000 0.000016 0.000000
-10.000000 -0.000000 0.000000
-10.000000 -0.000000 0.000000
-10.000000 0.000000 0.000000
-10.000000 0.000000 0.000000
-10.000000 -0.000000 0.000000
-10.000000 -0.000000 0.000000
-10.000000 0.000000 0.000000
-10.000000 -0.000000 0.000000
-10.000000 0.000000 0.000000
-10.000000 0.000000 0.000000
-10.000000 -0.000000 0.000000
-10.000000 -0.000000 0.000000
-10.000000 -0.000000 0.000000
-10.000000 0.000000 0.000000
-10.000000 -0.000000 0.000000
-10.000000 -0.000000 0.000000
-10.000000 0.000000 0.000000
-10.000000 0.000000 0.000000
-10.000000 -0.000000 0.000000