# vtk DataFile Version 4.0
hesp visualization file
ASCII
DATASET UNSTRUCTURED_GRID
POINTS 1250 double
33.869500 3.163275 4.000000
30.662131 0.828994 4.000000
35.497248 4.737735 4.000000
33.585049 6.563426 4.000000
31.924345 6.161379 4.000000
30.460581 9.655812 4.000000
31.573038 10.559266 4.000000
30.756297 9.784406 4.000000
30.197219 11.005760 4.000000
30.879307 11.234231 4.000000
30.242098 12.337273 4.000000
30.241010 13.469550 4.000000
30.241003 14.592006 4.000000
30.241008 15.714463 4.000000
30.241647 16.845524 4.000000
30.734270 17.932261 4.000000
31.229773 19.556121 4.000000
30.735656 18.690256 4.000000
31.107395 20.765564 4.000000
30.221969 19.962143 4.000000
33.328535 24.825616 4.000000
30.118008 26.906641 4.000000
33.726734 24.188507 4.000000
31.554719 28.779678 4.000000
32.573244 27.390493 4.000000
30.469410 -9.604981 4.000000
32.783621 2.259070 4.000000
31.727938 -1.940520 4.000000
30.602292 5.008955 4.000000
30.174317 6.053463 4.000000
30.135992 7.245869 4.000000
30.275200 7.727562 4.000000
31.989622 11.330385 4.000000
31.558100 12.235290 4.000000
31.734976 11.336032 4.000000
31.084938 12.362409 4.000000
31.085081 13.469535 4.000000
31.085080 14.592008 4.000000
31.085080 15.714478 4.000000
31.084878 16.823450 4.000000
31.971688 17.972284 4.000000
33.232317 18.775482 4.000000
31.122327 17.823252 4.000000
32.348959 18.433744 4.000000
30.711118 23.981772 4.000000
30.235502 24.421939 4.000000
31.970381 24.047049 4.000000
31.733522 31.120087 4.000000
32.784894 26.854835 4.000000
30.469410 38.788994 4.000000
31.849821 -1.475803 4.000000
32.588083 3.931582 4.000000
32.301768 4.059834 4.000000
32.289482 7.157130 4.000000
33.232227 5.471642 4.000000
30.808056 9.087533 4.000000
32.914608 10.732618 4.000000
31.032189 6.879516 4.000000
31.714049 9.453888 4.000000
32.760329 12.670795 4.000000
32.312534 12.866290 4.000000
31.568224 13.471831 4.000000
31.567626 14.592008 4.000000
31.568359 15.711890 4.000000
31.905525 16.557062 4.000000
32.219560 17.097707 4.000000
31.053334 19.135378 4.000000
32.502828 21.578792 4.000000
33.457155 17.623349 4.000000
30.424832 20.242326 4.000000
30.885766 24.177157 4.000000
34.557676 21.470306 4.000000
32.301944 22.555335 4.000000
33.733726 25.407795 4.000000
31.851337 30.655706 4.000000
31.525219 -2.461743 4.000000
31.812425 -5.215701 4.000000
31.533424 4.031753 4.000000
34.318343 3.365120 4.000000
32.618331 2.471112 4.000000
31.450000 5.298711 4.000000
32.185662 9.006642 4.000000
31.595202 9.851077 4.000000
34.414681 10.906167 4.000000
32.494375 11.182445 4.000000
33.803969 12.766485 4.000000
32.410611 13.464300 4.000000
32.410600 14.592003 4.000000
32.410585 15.718477 4.000000
33.331774 16.853460 4.000000
32.208075 17.978137 4.000000
34.246628 18.348084 4.000000
30.964832 18.150054 4.000000
32.231473 20.491102 4.000000
30.819496 21.120186 4.000000
35.344306 24.193352 4.000000
34.125588 26.165044 4.000000
30.753472 25.155134 4.000000
31.812428 34.399714 4.000000
31.525220 31.645770 4.000000
34.263023 2.152699 4.000000
31.261124 4.865390 4.000000
32.203989 -0.142691 4.000000
35.906220 7.421220 4.000000
30.569431 8.862834 4.000000
30.127249 8.816227 4.000000
33.529658 7.949965 4.000000
31.413151 8.463051 4.000000
31.823305 8.811045 4.000000
32.574605 11.931613 4.000000
32.134621 13.135868 4.000000
33.531753 13.470749 4.000000
33.101479 15.135215 4.000000
33.196619 15.959471 4.000000
32.286864 16.432791 4.000000
33.463952 16.223966 4.000000
31.501753 19.685731 4.000000
31.563845 20.561847 4.000000
32.681138 22.742893 4.000000
31.480368 21.031668 4.000000
30.717509 22.400060 4.000000
35.665218 23.917572 4.000000
32.205683 28.899516 4.000000
32.589692 24.496280 4.000000
32.381102 26.547684 4.000000
30.615381 -2.623993 4.000000
32.152691 -4.139622 4.000000
36.764355 7.386899 4.000000
30.880755 6.248915 4.000000
33.024299 7.014033 4.000000
31.568433 5.560093 4.000000
31.716727 7.793831 4.000000
32.375659 9.991920 4.000000
33.299338 10.202998 4.000000
34.892797 13.060909 4.000000
33.107499 13.996229 4.000000
34.636324 13.432742 4.000000
33.413209 14.946371 4.000000
33.337115 15.417431 4.000000
34.173300 13.999522 4.000000
34.217351 15.922470 4.000000
33.318624 18.999655 4.000000
33.052493 19.440049 4.000000
31.865257 21.065126 4.000000
30.172415 21.313147 4.000000
33.897425 20.566072 4.000000
30.123783 20.657467 4.000000
36.637105 24.322259 4.000000
32.152916 33.323698 4.000000
30.615378 31.808010 4.000000
30.859439 1.389456 4.000000
36.687168 3.715309 4.000000
31.570645 0.480978 4.000000
34.305691 4.591776 4.000000
31.032750 8.904497 4.000000
32.195214 8.224630 4.000000
34.081966 7.924220 4.000000
35.418586 9.125695 4.000000
32.495091 8.450204 4.000000
33.304959 11.287913 4.000000
33.309208 12.206934 4.000000
34.382358 13.900332 4.000000
34.300641 14.393652 4.000000
34.234208 15.600401 4.000000
33.603031 17.843867 4.000000
33.276454 17.924994 4.000000
32.603863 20.878048 4.000000
35.286559 19.629029 4.000000
33.567754 23.350624 4.000000
31.164313 21.187857 4.000000
31.684897 23.153071 4.000000
33.733600 21.981795 4.000000
31.084040 27.151611 4.000000
36.693399 26.033503 4.000000
31.330469 27.374465 4.000000
38.664287 -6.214369 4.000000
34.440164 1.887243 4.000000
36.683222 1.747142 4.000000
32.729292 7.318752 4.000000
34.580612 5.609202 4.000000
33.029168 6.288139 4.000000
35.737813 10.287806 4.000000
37.052050 9.654391 4.000000
33.860765 10.027465 4.000000
34.449294 11.161023 4.000000
34.512745 12.699601 4.000000
35.101920 13.273173 4.000000
35.215026 14.703637 4.000000
34.672018 15.745682 4.000000
36.552647 15.910462 4.000000
34.419885 17.805452 4.000000
34.485713 19.121413 4.000000
37.462533 19.652494 4.000000
35.933904 19.554601 4.000000
32.874215 22.040122 4.000000
35.465618 21.378128 4.000000
33.555733 22.758432 4.000000
36.136915 27.624744 4.000000
35.304341 23.879525 4.000000
38.664287 35.398382 4.000000
32.003802 2.431674 4.000000
31.409921 1.557524 4.000000
36.544545 0.534970 4.000000
36.741726 5.312790 4.000000
33.756962 7.886412 4.000000
35.035300 7.017930 4.000000
33.631925 8.178639 4.000000
36.819847 10.317122 4.000000
34.725581 10.602647 4.000000
34.840570 11.264979 4.000000
36.039860 11.756951 4.000000
35.548865 13.466556 4.000000
35.548783 14.592047 4.000000
35.549030 15.718376 4.000000
34.688988 17.008780 4.000000
34.832061 17.958816 4.000000
34.556401 18.203634 4.000000
36.304868 18.875785 4.000000
33.737021 20.992002 4.000000
34.077946 21.296878 4.000000
33.744277 21.314919 4.000000
36.818799 25.179891 4.000000
37.276248 28.721492 4.000000
31.542435 27.769391 4.000000
33.086310 27.929617 4.000000
32.332882 0.792944 4.000000
33.925647 -3.132133 4.000000
35.787330 2.241605 4.000000
35.718701 4.472290 4.000000
35.071981 7.557708 4.000000
35.806015 6.608889 4.000000
37.302918 8.061583 4.000000
34.672712 10.191360 4.000000
35.809566 11.509825 4.000000
36.370722 11.872771 4.000000
36.003344 12.639889 4.000000
36.385829 13.471442 4.000000
36.387311 14.592002 4.000000
36.375779 15.694573 4.000000
35.753610 16.837836 4.000000
36.611067 16.828415 4.000000
35.860390 17.860794 4.000000
34.420539 19.518093 4.000000
35.904762 20.299903 4.000000
36.401753 22.786504 4.000000
36.265848 22.432233 4.000000
35.924408 24.962319 4.000000
35.733475 26.898852 4.000000
33.925648 32.316144 4.000000
32.304357 28.315821 4.000000
30.585860 -0.125390 4.000000
36.097627 1.276413 4.000000
36.191199 3.199678 4.000000
34.783809 2.987025 4.000000
38.089389 5.342080 4.000000
36.186334 7.532329 4.000000
35.559072 8.254280 4.000000
35.556343 11.121191 4.000000
36.233770 10.116680 4.000000
38.059715 12.514292 4.000000
36.871753 12.345479 4.000000
36.875902 13.469549 4.000000
36.875901 14.592007 4.000000
36.875798 15.714512 4.000000
36.876594 16.837488 4.000000
38.010489 16.796131 4.000000
35.957728 19.075931 4.000000
35.447553 18.245689 4.000000
35.594313 20.323643 4.000000
37.258454 21.204218 4.000000
39.287116 23.946687 4.000000
33.858492 26.729456 4.000000
36.310407 23.713361 4.000000
35.311216 26.544211 4.000000
30.565772 29.402484 4.000000
32.091469 -0.747185 4.000000
34.780330 -0.174507 4.000000
38.310647 8.488188 4.000000
34.419539 3.684411 4.000000
37.568531 6.598188 4.000000
39.311187 6.840644 4.000000
36.853597 7.758992 4.000000
36.157261 8.987573 4.000000
37.079662 10.091590 4.000000
37.079650 11.225021 4.000000
37.582155 12.457560 4.000000
37.714081 13.469537 4.000000
37.714082 14.592007 4.000000
37.714069 15.714478 4.000000
37.592532 16.727029 4.000000
37.079611 17.958830 4.000000
37.080022 19.092886 4.000000
36.547134 19.804584 4.000000
37.824390 21.472131 4.000000
37.725299 23.616848 4.000000
36.276518 24.306919 4.000000
34.300181 25.580145 4.000000
37.691106 20.767953 4.000000
34.785981 29.377902 4.000000
32.091535 29.931342 4.000000
32.692226 1.146338 4.000000
33.945842 0.236833 4.000000
39.069478 2.890715 4.000000
39.294409 5.471917 4.000000
38.340112 6.258798 4.000000
36.716300 6.220865 4.000000
39.147722 8.907207 4.000000
37.284215 8.979648 4.000000
38.203118 10.123908 4.000000
38.202704 11.224630 4.000000
38.262134 12.317787 4.000000
38.202661 13.469543 4.000000
38.202662 14.592007 4.000000
38.202661 15.714470 4.000000
38.260233 16.840680 4.000000
38.202704 17.959396 4.000000
38.203135 19.059647 4.000000
37.284019 20.203855 4.000000
39.118228 20.273745 4.000000
36.656165 22.997027 4.000000
37.793134 21.801502 4.000000
37.387273 23.599460 4.000000
38.958383 26.164950 4.000000
33.978739 28.978156 4.000000
32.691644 28.033924 4.000000
33.389899 -0.296383 4.000000
37.040521 2.082876 4.000000
35.707364 1.643520 4.000000
36.135843 4.643573 4.000000
36.760401 4.290454 4.000000
39.211190 6.315393 4.000000
37.481576 7.879482 4.000000
38.406700 8.972817 4.000000
39.040368 10.088322 4.000000
39.041437 11.224618 4.000000
39.041480 12.347087 4.000000
39.041498 13.469545 4.000000
39.041498 14.592007 4.000000
39.041498 15.714469 4.000000
39.041483 16.836927 4.000000
39.041441 17.959387 4.000000
39.040355 19.095987 4.000000
38.397912 20.185436 4.000000
37.608182 21.216120 4.000000
[...]
POINT_DATA 1250
SCALARS m double
LOOKUP_TABLE default
1.000000
1.000000
1.000000
1.000000
1.000000
1.000000
1.000000
1.000000
1.000000
1.000000
1.000000
1.000000
1.000000
1.000000
1.000000
1.000000
1.000000
1.000000
1.000000
1.000000
1.000000
1.000000
1.000000
1.000000
1.000000
1.000000
1.000000
1.000000
1.000000
1.000000
1.000000
1.000000
1.000000
1.000000
1.000000
1.000000
1.000000
1.000000
1.000000
1.000000
1.000000
1.000000
1.000000
1.000000
1.000000
1.000000
1.000000
1.000000
1.000000
1.000000
1.000000
1.000000
1.000000
1.000000
1.000000
1.000000
1.000000
1.000000
1.000000
1.000000
1.000000
1.000000
1.000000
1.000000
1.000000
1.000000
1.000000
1.000000
1.000000
1.000000
1.000000
1.000000
1.000000
1.000000
1.000000
1.000000
1.000000
1.000000
1.000000
1.000000
1.000000
1.000000
1.000000
1.000000
1.000000
1.000000
1.000000
1.000000
1.000000
1.000000
1.000000
1.000000
1.000000
1.000000
1.000000
1.000000
1.000000
1.000000
1.000000
1.000000
1.000000
1.000000
1.000000
1.000000
1.000000
1.000000
1.000000
1.000000
1.000000
1.000000
1.000000
1.000000
1.000000
1.000000
1.000000
1.000000
1.000000
1.000000
1.000000
1.000000
1.000000
1.000000
1.000000
1.000000
1.000000
1.000000
1.000000
1.000000
1.000000
1.000000
1.000000
1.000000
1.000000
1.000000
1.000000
1.000000
1.000000
1.000000
1.000000
1.000000
1.000000
1.000000
1.000000
1.000000
1.000000
1.000000
1.000000
1.000000
1.000000
1.000000
1.000000
1.000000
1.000000
1.000000
1.000000
1.000000
1.000000
1.000000
1.000000
1.000000
1.000000
1.000000
1.000000
1.000000
1.000000
1.000000
1.000000
1.000000
1.000000
1.000000
1.000000
1.000000
1.000000
1.000000
1.000000
1.000000
1.000000
1.000000
1.000000
1.000000
1.000000
1.000000
1.000000
1.000000
1.000000
1.000000
1.000000
1.000000
1.000000
1.000000
1.000000
1.000000
1.000000
1.000000
1.000000
1.000000
1.000000
1.000000
1.000000
1.000000
1.000000
1.000000
1.000000
1.000000
1.000000
1.000000
1.000000
1.000000
1.000000
1.000000
1.000000
1.000000
1.000000
1.000000
1.000000
1.000000
1.000000
1.000000
1.000000
1.000000
1.000000
1.000000
1.000000
1.000000
1.000000
1.000000
1.000000
1.000000
1.000000
1.000000
1.000000
1.000000
1.000000
1.000000
1.000000
1.000000
1.000000
1.000000
1.000000
1.000000
1.000000
1.000000
1.000000
1.000000
1.000000
1.000000
1.000000
1.000000
1.000000
1.000000
1.000000
1.000000
1.000000
1.000000
1.000000
1.000000
1.000000
1.000000
1.000000
1.000000
1.000000
1.000000
1.000000
1.000000
1.000000
1.000000
1.000000
1.000000
1.000000
1.000000
1.000000
1.000000
1.000000
1.000000
1.000000
1.000000
1.000000
1.000000
1.000000
1.000000
1.000000
1.000000
1.000000
1.000000
1.000000
1.000000
1.000000
1.000000
1.000000
1.000000
1.000000
1.000000
1.000000
1.000000
1.000000
1.000000
1.000000
1.000000
1.000000
1.000000
1.000000
1.000000
1.000000
1.000000
1.000000
1.000000
1.000000
1.000000
1.000000
1.000000
1.000000
1.000000
1.000000
1.000000
1.000000
1.000000
1.000000
1.000000
1.000000
1.000000
1.000000
1.000000
1.000000
1.000000
1.000000
1.000000
1.000000
1.000000
1.000000
1.000000
1.000000
1.000000
1.000000
1.000000
1.000000
1.000000
1.000000
1.000000
1.000000
1.000000
1.000000
1.000000
1.000000
1.000000
1.000000
1.000000
1.000000
1.000000
1.000000
1.000000
1.000000
1.000000
1.000000
1.000000
1.000000
1.000000
1.000000
1.000000
1.000000
1.000000
1.000000
1.000000
1.000000
1.000000
1.000000
1.000000
1.000000
1.000000
1.000000
1.000000
1.000000
1.000000
1.000000
1.000000
1.000000
1.000000
1.000000
1.000000
1.000000
1.000000
1.000000
1.000000
1.000000
1.000000
1.000000
1.000000
1.000000
1.000000
1.000000
1.000000
1.000000
1.000000
1.000000
1.000000
1.000000
1.000000
1.000000
1.000000
1.000000
1.000000
1.000000
1.000000
1.000000
1.000000
1.000000
1.000000
1.000000
1.000000
1.000000
1.000000
1.000000
1.000000
1.000000
1.000000
1.000000
1.000000
1.000000
1.000000
1.000000
1.000000
1.000000
1.000000
1.000000
1.000000
1.000000
1.000000
1.000000
1.000000
1.000000
1.000000
1.000000
1.000000
1.000000
1.000000
1.000000
1.000000
1.000000
1.000000
1.000000
1.000000
1.000000
1.000000
1.000000
1.000000
1.000000
1.000000
1.000000
1.000000
1.000000
1.000000
1.000000
1.000000
1.000000
1.000000
1.000000
1.000000
1.000000
1.000000
1.000000
1.000000
1.000000
1.000000
1.000000
1.000000
1.000000
1.000000
1.000000
1.000000
1.000000
1.000000
1.000000
1.000000
1.000000
1.000000
1.000000
1.000000
1.000000
1.000000
1.000000
1.000000
1.000000
1.000000
1.000000
1.000000
1.000000
1.000000
1.000000
1.000000
1.000000
1.000000
1.000000
1.000000
1.000000
1.000000
1.000000
1.000000
1.000000
1.000000
1.000000
1.000000
1.000000
1.000000
1.000000
1.000000
1.000000
1.000000
1.000000
1.000000
1.000000
1.000000
1.000000
1.000000
1.000000
1.000000
1.000000
1.000000
1.000000
1.000000
1.000000
1.000000
1.000000
1.000000
1.000000
1.000000
1.000000
1.000000
1.000000
1.000000
1.000000
1.000000
1.000000
1.000000
1.000000
1.000000
1.000000
1.000000
1.000000
1.000000
1.000000
1.000000
1.000000
1.000000
1.000000
1.000000
1.000000
1.000000
1.000000
1.000000
1.000000
1.000000
1.000000
1.000000
1.000000
1.000000
1.000000
1.000000
1.000000
1.000000
1.000000
1.000000
1.000000
1.000000
1.000000
1.000000
1.000000
1.000000
1.000000
1.000000
1.000000
1.000000
1.000000
1.000000
1.000000
1.000000
1.000000
1.000000
1.000000
1.000000
1.000000
1.000000
1.000000
1.000000
1.000000
1.000000
1.000000
1.000000
1.000000
1.000000
1.000000
1.000000
1.000000
1.000000
1.000000
1.000000
1.000000
1.000000
1.000000
1.000000
1.000000
1.000000
1.000000
1.000000
1.000000
1.000000
1.000000
1.000000
1.000000
1.000000
1.000000
1.000000
1.000000
1.000000
1.000000
1.000000
1.000000
1.000000
1.000000
1.000000
1.000000
1.000000
1.000000
1.000000
1.000000
1.000000
1.000000
1.000000
1.000000
1.000000
1.000000
1.000000
1.000000
1.000000
1.000000
1.000000
1.000000
1.000000
1.000000
1.000000
1.000000
1.000000
1.000000
1.000000
1.000000
1.000000
1.000000
1.000000
1.000000
1.000000
1.000000
1.000000
1.000000
1.000000
1.000000
1.000000
1.000000
1.000000
1.000000
1.000000
1.000000
1.000000
1.000000
1.000000
1.000000
1.000000
1.000000
1.000000
1.000000
1.000000
1.000000
1.000000
1.000000
1.000000
1.000000
1.000000
1.000000
1.000000
1.000000
1.000000
1.000000
1.000000
1.000000
1.000000
1.000000
1.000000
1.000000
1.000000
1.000000
1.000000
1.000000
1.000000
1.000000
1.000000
1.000000
1.000000
1.000000
1.000000
1.000000
1.000000
1.000000
1.000000
1.000000
1.000000
1.000000
1.000000
1.000000
1.000000
1.000000
1.000000
1.000000
1.000000
1.000000
1.000000
1.000000
1.000000
1.000000
1.000000
1.000000
1.000000
1.000000
1.000000
1.000000
1.000000
1.000000
1.000000
1.000000
1.000000
1.000000
1.000000
1.000000
1.000000
1.000000
1.000000
1.000000
1.000000
1.000000
1.000000
1.000000
1.000000
1.000000
1.000000
1.000000
1.000000
1.000000
1.000000
1.000000
1.000000
1.000000
1.000000
1.000000
1.000000
1.000000
1.000000
1.000000
1.000000
1.000000
1.000000
1.000000
1.000000
1.000000
1.000000
1.000000
1.000000
1.000000
1.000000
1.000000
1.000000
1.000000
1.000000
1.000000
1.000000
1.000000
1.000000
1.000000
1.000000
1.000000
1.000000
1.000000
1.000000
1.000000
1.000000
1.000000
1.000000
1.000000
1.000000
1.000000
1.000000
1.000000
1.000000
1.000000
1.000000
1.000000
1.000000
1.000000
1.000000
1.000000
1.000000
1.000000
1.000000
1.000000
1.000000
1.000000
1.000000
1.000000
1.000000
1.000000
1.000000
1.000000
1.000000
1.000000
1.000000
1.000000
1.000000
1.000000
1.000000
1.000000
1.000000
1.000000
1.000000
1.000000
1.000000
1.000000
1.000000
1.000000
1.000000
1.000000
1.000000
1.000000
1.000000
1.000000
1.000000
1.000000
1.000000
1.000000
1.000000
1.000000
1.000000
1.000000
1.000000
1.000000
1.000000
1.000000
1.000000
1.000000
1.000000
1.000000
1.000000
1.000000
1.000000
1.000000
1.000000
1.000000
1.000000
1.000000
1.000000
1.000000
1.000000
1.000000
1.000000
1.000000
1.000000
1.000000
1.000000
1.000000
1.000000
1.000000
1.000000
1.000000
1.000000
1.000000
1.000000
1.000000
1.000000
1.000000
1.000000
1.000000
1.000000
1.000000
1.000000
1.000000
1.000000
1.000000
1.000000
1.000000
1.000000
1.000000
1.000000
1.000000
1.000000
1.000000
1.000000
1.000000
1.000000
1.000000
1.000000
1.000000
1.000000
1.000000
1.000000
1.000000
1.000000
1.000000
1.000000
1.000000
1.000000
1.000000
1.000000
1.000000
1.000000
1.000000
1.000000
1.000000
1.000000
1.000000
1.000000
1.000000
1.000000
1.000000
1.000000
1.000000
1.000000
1.000000
1.000000
1.000000
1.000000
1.000000
1.000000
1.000000
1.000000
1.000000
1.000000
1.000000
1.000000
1.000000
1.000000
1.000000
1.000000
1.000000
1.000000
1.000000
1.000000
1.000000
1.000000
1.000000
1.000000
1.000000
1.000000
1.000000
1.000000
1.000000
1.000000
1.000000
1.000000
1.000000
1.000000
1.000000
1.000000
1.000000
1.000000
1.000000
1.000000
1.000000
1.000000
1.000000
1.000000
1.000000
1.000000
1.000000
1.000000
1.000000
1.000000
1.000000
1.000000
1.000000
1.000000
1.000000
1.000000
1.000000
1.000000
1.000000
1.000000
1.000000
1.000000
1.000000
1.000000
1.000000
1.000000
1.000000
1.000000
1.000000
1.000000
1.000000
1.000000
1.000000
1.000000
1.000000
1.000000
1.000000
1.000000
1.000000
1.000000
1.000000
1.000000
1.000000
1.000000
1.000000
1.000000
1.000000
1.000000
1.000000
1.000000
1.000000
1.000000
1.000000
1.000000
1.000000
1.000000
1.000000
1.000000
1.000000
1.000000
1.000000
1.000000
1.000000
1.000000
1.000000
1.000000
1.000000
1.000000
1.000000
1.000000
1.000000
1.000000
1.000000
1.000000
1.000000
1.000000
1.000000
1.000000
1.000000
1.000000
1.000000
1.000000
1.000000
1.000000
1.000000
1.000000
1.000000
1.000000
1.000000
1.000000
1.000000
1.000000
1.000000
1.000000
1.000000
1.000000
1.000000
1.000000
1.000000
1.000000
1.000000
1.000000
1.000000
1.000000
1.000000
1.000000
1.000000
1.000000
1.000000
1.000000
1.000000
1.000000
1.000000
1.000000
1.000000
1.000000
1.000000
1.000000
1.000000
1.000000
1.000000
1.000000
1.000000
1.000000
1.000000
1.000000
1.000000
1.000000
1.000000
1.000000
1.000000
1.000000
1.000000
1.000000
1.000000
1.000000
1.000000
1.000000
1.000000
1.000000
1.000000
1.000000
1.000000
1.000000
1.000000
1.000000
1.000000
1.000000
1.000000
1.000000
1.000000
1.000000
1.000000
1.000000
1.000000
1.000000
1.000000
1.000000
1.000000
1.000000
1.000000
1.000000
1.000000
1.000000
1.000000
1.000000
1.000000
1.000000
1.000000
1.000000
1.000000
1.000000
1.000000
1.000000
1.000000
1.000000
1.000000
1.000000
1.000000
1.000000
1.000000
1.000000
1.000000
1.000000
1.000000
1.000000
1.000000
1.000000
1.000000
1.000000
1.000000
1.000000
1.000000
1.000000
1.000000
1.000000
1.000000
1.000000
1.000000
1.000000
1.000000
1.000000
1.000000
1.000000
1.000000
1.000000
1.000000
1.000000
1.000000
1.000000
1.000000
1.000000
1.000000
1.000000
1.000000
1.000000
1.000000
1.000000
1.000000
1.000000
1.000000
1.000000
1.000000
1.000000
1.000000
1.000000
1.000000
1.000000
1.000000
1.000000
1.000000
1.000000
1.000000
1.000000
1.000000
1.000000
1.000000
1.000000
1.000000
1.000000
1.000000
1.000000
1.000000
1.000000
1.000000
1.000000
1.000000
1.000000
1.000000
1.000000
1.000000
1.000000
1.000000
1.000000
1.000000
1.000000
1.000000
1.000000
1.000000
1.000000
1.000000
1.000000
1.000000
1.000000
1.000000
1.000000
1.000000
1.000000
1.000000
1.000000
1.000000
1.000000
1.000000
1.000000
1.000000
1.000000
1.000000
1.000000
1.000000
1.000000
1.000000
1.000000
1.000000
1.000000
1.000000
1.000000
1.000000
1.000000
1.000000
1.000000
VECTORS v double
3.840397 -7.158109 0.000000
-2.522046 -4.465624 0.000000
-7.704515 -3.159501 0.000000
2.814871 14.855678 0.000000
-3.953679 -4.709372 0.000000
3.095300 4.900573 0.000000
5.495932 6.949477 0.000000
-3.311405 3.820630 0.000000
-6.039308 9.272455 0.000000
9.977789 0.054351 0.000000
-9.998511 -0.309334 0.000000
-10.014337 0.000166 0.000000
-10.014427 -0.000025 0.000000
-10.014387 -0.000188 0.000000
-10.006011 0.271048 0.000000
-0.417088 -1.212372 0.000000
-2.534278 -0.162291 0.000000
2.277776 -8.818014 0.000000
-7.114606 3.337107 0.000000
1.274900 -1.938410 0.000000
6.760636 5.458020 0.000000
-2.769852 7.932438 0.000000
1.760732 -2.339499 0.000000
5.582637 7.280232 0.000000
-6.196283 10.589629 0.000000
2.631771 -13.726701 0.000000
1.404651 -10.365178 0.000000
5.474880 -9.725141 0.000000
-0.822506 -10.350627 0.000000
-0.278062 5.139250 0.000000
5.383996 0.647108 0.000000
5.828315 3.249591 0.000000
-6.334979 9.194733 0.000000
-2.213076 2.261184 0.000000
-4.429360 5.281871 0.000000
10.011869 0.376851 0.000000
10.013426 -0.000237 0.000000
10.013397 0.000025 0.000000
10.013330 0.000196 0.000000
9.998649 -0.334236 0.000000
-6.713466 -0.245958 0.000000
5.973797 -4.814505 0.000000
11.203037 -11.119791 0.000000
0.006374 -16.932289 0.000000
2.352032 1.449071 0.000000
3.304670 11.714592 0.000000
0.079614 -2.440542 0.000000
5.486938 9.712889 0.000000
-8.304041 -3.639247 0.000000
2.631771 13.726701 0.000000
0.139923 -9.293493 0.000000
6.523312 -1.532904 0.000000
4.869510 -4.802368 0.000000
-10.135910 9.284535 0.000000
10.036604 -0.317524 0.000000
-6.018284 -4.477068 0.000000
7.169796 -2.479004 0.000000
-6.599028 -5.449354 0.000000
-0.699300 -8.442818 0.000000
3.250241 7.904134 0.000000
12.518981 7.888922 0.000000
-10.000613 0.069367 0.000000
-10.013608 0.000057 0.000000
-10.006661 -0.080778 0.000000
0.540680 -9.014625 0.000000
3.609474 4.899999 0.000000
-10.097047 0.530756 0.000000
4.174315 -4.047953 0.000000
6.151078 -4.782286 0.000000
6.122535 -13.922308 0.000000
2.406464 6.610708 0.000000
-6.998049 -11.205838 0.000000
-6.380009 -3.115463 0.000000
4.670744 1.431147 0.000000
0.144591 9.274934 0.000000
-0.502864 -3.662534 0.000000
6.835246 -10.618980 0.000000
-1.420657 9.351837 0.000000
6.153887 -1.971996 0.000000
-8.628135 3.420641 0.000000
12.812579 -6.204695 0.000000
-9.931979 0.659802 0.000000
4.958048 5.017697 0.000000
1.090368 -5.819656 0.000000
13.789044 -1.288540 0.000000
18.019736 6.929927 0.000000
9.978405 -0.212274 0.000000
10.001450 0.000035 0.000000
10.000621 0.100714 0.000000
10.026302 0.250859 0.000000
6.687644 0.508642 0.000000
-7.419642 1.673990 0.000000
-3.459448 -7.984751 0.000000
-10.876420 1.690113 0.000000
9.090897 2.148378 0.000000
15.099967 -4.017541 0.000000
4.138960 7.193858 0.000000
-5.958246 -9.268279 0.000000
6.835251 10.618981 0.000000
-0.502962 3.663554 0.000000
-5.049895 -0.383013 0.000000
-3.784029 5.274482 0.000000
9.958788 -10.608887 0.000000
8.961688 9.034135 0.000000
-6.794782 8.480767 0.000000
3.937710 14.049534 0.000000
-3.148049 1.867525 0.000000
-8.035724 -2.046262 0.000000
2.854882 -5.330857 0.000000
-5.157675 -0.715399 0.000000
-8.026994 8.906290 0.000000
9.996418 0.015292 0.000000
-2.486483 15.090020 0.000000
-0.638886 7.959246 0.000000
-1.057923 -16.667166 0.000000
1.129443 -7.978303 0.000000
6.315651 2.965784 0.000000
-1.305309 -6.497028 0.000000
-3.191081 5.881129 0.000000
2.480148 6.536110 0.000000
-5.871581 0.062427 0.000000
-5.625197 -1.891934 0.000000
9.783852 6.184515 0.000000
8.238323 -4.226849 0.000000
-5.198322 7.603726 0.000000
-1.112786 -6.328162 0.000000
-1.996057 -10.926621 0.000000
3.296245 2.608664 0.000000
1.742370 -9.162103 0.000000
-6.523208 -0.403591 0.000000
-3.061925 -8.199943 0.000000
-8.024977 -2.993115 0.000000
-3.208625 6.177718 0.000000
-9.948246 1.531793 0.000000
0.849159 -3.590078 0.000000
-5.294950 -12.019659 0.000000
9.649079 -0.901009 0.000000
0.494673 -14.204887 0.000000
-4.566586 13.462306 0.000000
-7.566971 -13.622960 0.000000
5.023166 1.605085 0.000000
-5.451716 7.057208 0.000000
7.432780 -2.659921 0.000000
-4.695937 -1.476340 0.000000
9.451539 -4.498769 0.000000
-1.329732 -4.428821 0.000000
5.296110 -8.025129 0.000000
-0.884821 -0.647732 0.000000
-1.995618 10.926746 0.000000
-1.112804 6.328190 0.000000
-5.230817 -5.425427 0.000000
1.622474 3.505696 0.000000
4.108113 -6.757047 0.000000
4.355350 -2.364457 0.000000
-1.076846 13.881019 0.000000
-3.371014 10.319368 0.000000
-6.098956 3.349723 0.000000
15.425614 -0.063988 0.000000
-11.432764 -8.258594 0.000000
-9.965479 0.965606 0.000000
-9.988353 -0.966052 0.000000
-0.689113 4.219102 0.000000
-6.989471 -4.446362 0.000000
-8.734354 -6.634328 0.000000
1.141976 12.520297 0.000000
-12.579617 1.899575 0.000000
-9.053131 10.060146 0.000000
14.703597 -2.083405 0.000000
-4.793625 9.012772 0.000000
-15.720908 -0.506333 0.000000
-4.365583 10.112259 0.000000
2.544161 -9.943454 0.000000
8.942509 3.265989 0.000000
-6.067983 -4.044110 0.000000
-6.755072 -1.311620 0.000000
4.837053 -9.997753 0.000000
-1.978306 -9.100194 0.000000
10.434431 -0.624983 0.000000
-4.920459 4.790361 0.000000
-8.706956 1.510805 0.000000
-2.458328 -4.762829 0.000000
-10.342825 10.543861 0.000000
10.670872 6.725839 0.000000
-16.522861 -2.566224 0.000000
-6.465078 5.191185 0.000000
-8.633096 1.826783 0.000000
14.078701 6.803185 0.000000
13.470405 3.326628 0.000000
7.380853 2.326477 0.000000
15.004743 -4.227504 0.000000
-10.289367 -14.688891 0.000000
10.141388 1.170698 0.000000
14.371651 -4.674756 0.000000
3.839367 -6.497392 0.000000
-3.329927 -5.902456 0.000000
8.082217 -12.711071 0.000000
11.434163 1.207296 0.000000
1.708425 5.532895 0.000000
5.155083 -7.286429 0.000000
4.837053 9.997753 0.000000
-2.951594 -4.373291 0.000000
-9.876678 -1.605447 0.000000
-5.065499 -11.703079 0.000000
3.385376 10.142538 0.000000
4.577788 1.753293 0.000000
1.364066 -3.130547 0.000000
-8.899336 11.500776 0.000000
2.157207 -9.469253 0.000000
-4.608246 2.909507 0.000000
8.997455 3.795476 0.000000
-4.730780 -10.560896 0.000000
-10.008551 -0.078300 0.000000
-10.038990 0.010067 0.000000
-9.991605 0.099502 0.000000
-9.332150 1.950839 0.000000
8.138226 -0.103316 0.000000
2.824313 -0.984187 0.000000
-4.272036 9.312519 0.000000
-9.473437 -7.555754 0.000000
-8.844295 -5.385132 0.000000
-7.473038 -1.065622 0.000000
-6.247027 13.426349 0.000000
0.370506 11.929538 0.000000
-4.601009 7.458444 0.000000
0.490890 8.124558 0.000000
1.504993 -1.189674 0.000000
-3.933269 -8.257647 0.000000
-7.198600 -6.658480 0.000000
-6.485317 -0.460147 0.000000
-12.763195 4.365532 0.000000
-1.880093 -7.293313 0.000000
1.026108 4.668657 0.000000
9.882394 4.052418 0.000000
-2.325906 11.014817 0.000000
6.681121 6.596748 0.000000
-3.197589 8.046366 0.000000
9.989365 0.060036 0.000000
10.004775 -0.000133 0.000000
7.704795 -3.650153 0.000000
-9.977749 0.019969 0.000000
2.513866 -10.946096 0.000000
-1.694462 -9.836554 0.000000
-11.875021 2.806075 0.000000
-12.561671 -1.715562 0.000000
-2.439199 13.063246 0.000000
-2.421603 3.824309 0.000000
-0.104715 1.042605 0.000000
-0.142219 3.021878 0.000000
-3.933267 8.257643 0.000000
1.356619 0.836654 0.000000
11.628154 -4.341548 0.000000
4.688210 -6.613883 0.000000
-2.172056 -10.619458 0.000000
-2.318376 -1.707717 0.000000
-4.968438 -1.548599 0.000000
-9.460041 0.114475 0.000000
-5.984987 -5.557092 0.000000
-3.939458 12.966440 0.000000
5.465477 0.528396 0.000000
1.256242 20.578000 0.000000
-10.124027 -0.043983 0.000000
-10.005954 0.000083 0.000000
-10.006154 0.000018 0.000000
-10.033232 0.014539 0.000000
-9.224185 0.015726 0.000000
-8.276815 -11.470440 0.000000
-9.912437 -0.129267 0.000000
-4.399577 -11.097785 0.000000
-6.572856 -0.604844 0.000000
-10.154539 -4.084110 0.000000
1.599136 -6.857068 0.000000
-7.689842 6.477435 0.000000
-9.989494 -5.225142 0.000000
-3.726684 -6.509803 0.000000
11.546220 4.792511 0.000000
-7.984577 -7.185019 0.000000
-9.767944 -5.479656 0.000000
9.108825 4.992305 0.000000
-10.879137 -0.083246 0.000000
2.470506 3.561748 0.000000
13.854088 6.689602 0.000000
4.602300 10.382992 0.000000
-10.060319 0.172979 0.000000
-10.053817 -0.111515 0.000000
-10.003876 0.007259 0.000000
4.680803 4.292209 0.000000
10.005485 -0.000406 0.000000
10.005465 0.000014 0.000000
10.005164 0.000445 0.000000
4.208552 -5.150491 0.000000
-10.003955 -0.011302 0.000000
-9.997040 0.136374 0.000000
-1.207973 -9.251596 0.000000
5.055256 -10.631554 0.000000
-6.120437 4.138153 0.000000
-0.826047 7.650758 0.000000
-11.261481 0.303748 0.000000
7.127695 -9.566815 0.000000
-9.744144 5.557769 0.000000
-7.983368 7.193697 0.000000
-10.012692 0.087217 0.000000
-6.154641 -8.694177 0.000000
3.661945 1.002938 0.000000
9.333683 -0.501460 0.000000
5.591180 1.477684 0.000000