# vtk DataFile Version 4.0
hesp visualization file
ASCII
DATASET UNSTRUCTURED_GRID
POINTS 1250 double
33.271443 -2.425291 4.000000
31.360424 -1.564696 4.000000
33.650480 6.552477 4.000000
33.338938 7.842399 4.000000
28.644461 4.678285 4.000000
29.986800 13.918205 4.000000
30.978046 8.806867 4.000000
33.342789 9.789605 4.000000
33.594681 15.423366 4.000000
34.479925 13.397673 4.000000
33.545557 10.942579 4.000000
31.989831 15.430660 4.000000
32.561968 15.710919 4.000000
30.055679 16.941701 4.000000
31.220646 18.188771 4.000000
28.957976 16.051839 4.000000
31.326197 19.669957 4.000000
34.266149 16.574870 4.000000
27.609994 23.081552 4.000000
28.905665 17.027608 4.000000
35.399895 23.924565 4.000000
30.650344 31.619791 4.000000
35.101185 25.295960 4.000000
31.503315 31.871486 4.000000
30.888116 29.699089 4.000000
32.126946 -18.252802 4.000000
31.480552 1.360163 4.000000
35.112517 -7.991230 4.000000
31.940987 1.585874 4.000000
26.454493 9.480096 4.000000
30.555328 3.258285 4.000000
33.303161 7.571383 4.000000
31.522027 11.892699 4.000000
33.519804 12.341135 4.000000
31.759234 12.816178 4.000000
30.635574 11.867512 4.000000
27.554188 12.663037 4.000000
34.498267 15.361332 4.000000
31.499363 16.764902 4.000000
35.407361 15.071174 4.000000
30.931191 14.366355 4.000000
32.681521 17.747805 4.000000
31.349660 16.366437 4.000000
32.909931 20.749720 4.000000
31.489346 24.049571 4.000000
31.372350 25.154677 4.000000
32.535558 20.113713 4.000000
35.131781 37.162346 4.000000
31.474741 29.448913 4.000000
32.126946 47.436816 4.000000
31.832530 -7.479452 4.000000
34.059088 2.041392 4.000000
32.102770 1.121628 4.000000
28.628494 8.345548 4.000000
34.785315 -0.265165 4.000000
30.157708 10.772377 4.000000
31.354778 8.247160 4.000000
30.139020 6.077119 4.000000
30.148685 14.830220 4.000000
32.877049 11.025039 4.000000
31.342360 13.316424 4.000000
25.709868 16.134377 4.000000
36.699763 14.633416 4.000000
36.593678 14.189508 4.000000
33.873143 13.385369 4.000000
33.372773 15.002854 4.000000
30.270835 20.644866 4.000000
30.010998 20.890893 4.000000
30.312389 19.578523 4.000000
36.074535 14.581983 4.000000
30.691653 25.529321 4.000000
30.949757 19.411520 4.000000
32.707457 21.729394 4.000000
32.680538 30.646554 4.000000
31.749982 36.617491 4.000000
32.182152 -6.284555 4.000000
36.118533 -11.905042 4.000000
31.865301 4.539718 4.000000
37.917946 2.236953 4.000000
30.042218 1.947201 4.000000
32.337091 2.281323 4.000000
29.542807 7.687045 4.000000
29.544874 12.222478 4.000000
31.933662 7.764747 4.000000
34.309111 2.149016 4.000000
36.726529 15.459421 4.000000
33.213691 14.374549 4.000000
36.676749 10.058187 4.000000
30.703210 15.981649 4.000000
35.587318 16.067449 4.000000
29.603371 17.749789 4.000000
35.985480 18.483248 4.000000
31.994093 11.676945 4.000000
28.710406 23.469382 4.000000
30.703908 17.704620 4.000000
36.437409 28.005176 4.000000
36.728944 30.717146 4.000000
31.024712 27.452770 4.000000
36.118539 41.089054 4.000000
33.413852 34.526329 4.000000
31.248402 1.506913 4.000000
32.739251 1.296359 4.000000
30.555156 -10.858828 4.000000
31.559338 3.760978 4.000000
31.543784 7.456853 4.000000
30.743872 12.517068 4.000000
33.513849 7.409811 4.000000
36.211673 11.210492 4.000000
34.628438 7.834886 4.000000
34.509101 10.092849 4.000000
31.832435 15.138514 4.000000
31.892103 8.664245 4.000000
36.647604 18.842193 4.000000
32.888779 16.114160 4.000000
26.334609 17.864681 4.000000
37.237366 12.690616 4.000000
30.227017 19.819217 4.000000
31.802918 18.619454 4.000000
32.942399 23.547943 4.000000
32.210026 21.455315 4.000000
32.659454 23.640196 4.000000
34.623886 23.320966 4.000000
34.776799 36.881477 4.000000
32.929143 28.929051 4.000000
30.584521 29.955050 4.000000
30.411022 -6.611655 4.000000
31.049738 -11.617481 4.000000
38.087324 5.819104 4.000000
28.498447 3.921218 4.000000
32.353073 6.316830 4.000000
31.096216 7.241231 4.000000
29.378564 8.457195 4.000000
33.088459 12.812585 4.000000
31.111895 11.778284 4.000000
32.774637 7.903624 4.000000
29.724964 11.358103 4.000000
34.189031 12.350937 4.000000
32.307580 13.279816 4.000000
34.436247 13.737799 4.000000
31.736786 10.685907 4.000000
34.075602 14.835775 4.000000
35.248052 16.795691 4.000000
33.142915 25.282701 4.000000
29.804201 18.614917 4.000000
28.394249 25.897687 4.000000
29.683846 19.026904 4.000000
29.124552 18.533629 4.000000
42.783207 20.601834 4.000000
30.895782 40.208139 4.000000
30.406257 35.791801 4.000000
30.807423 -2.574751 4.000000
36.397133 -7.372017 4.000000
32.589647 -3.668765 4.000000
32.629039 3.136582 4.000000
28.019824 9.130609 4.000000
32.592310 5.899644 4.000000
33.543862 8.183715 4.000000
37.535351 14.283340 4.000000
28.713166 5.086462 4.000000
31.187717 9.316313 4.000000
30.332342 10.119926 4.000000
36.864429 16.217446 4.000000
33.923425 13.798408 4.000000
28.976826 15.334367 4.000000
34.423558 24.823154 4.000000
33.411193 17.557725 4.000000
32.296285 25.027317 4.000000
34.356121 21.850912 4.000000
29.819151 21.208564 4.000000
30.939819 22.566945 4.000000
33.286810 30.500966 4.000000
33.363158 18.140135 4.000000
30.819661 28.697565 4.000000
31.475453 30.714386 4.000000
32.309203 32.300305 4.000000
41.711631 -12.512953 4.000000
32.150028 -4.782078 4.000000
36.369341 -0.644763 4.000000
31.382441 5.155371 4.000000
30.941050 7.620999 4.000000
33.463140 3.096572 4.000000
35.847859 9.071074 4.000000
36.790526 10.613199 4.000000
30.451291 11.435906 4.000000
33.839954 12.819788 4.000000
32.068518 12.796227 4.000000
33.524034 12.799949 4.000000
34.066290 18.066695 4.000000
36.889119 20.014385 4.000000
34.267971 16.945068 4.000000
34.912000 15.817238 4.000000
36.350597 18.252701 4.000000
34.724166 23.032461 4.000000
34.867311 20.121595 4.000000
29.494742 21.217841 4.000000
32.331358 19.265629 4.000000
32.652950 19.840249 4.000000
35.549735 31.076280 4.000000
31.983088 17.901182 4.000000
41.711631 41.696966 4.000000
30.173525 -0.300098 4.000000
34.150838 0.727912 4.000000
36.145656 -7.646756 4.000000
37.663133 4.859162 4.000000
34.074314 7.835685 4.000000
35.402055 5.344631 4.000000
29.165289 13.585448 4.000000
35.635117 11.554604 4.000000
37.226097 8.439251 4.000000
34.538803 5.872052 4.000000
35.791187 7.117061 4.000000
37.816321 16.101249 4.000000
39.578867 15.397529 4.000000
34.526677 16.649499 4.000000
31.243431 19.136484 4.000000
36.135769 16.901080 4.000000
34.480022 17.457470 4.000000
37.088177 15.953300 4.000000
30.877127 16.647078 4.000000
31.367538 21.173644 4.000000
35.265827 19.797027 4.000000
34.325009 24.321283 4.000000
37.807022 34.082831 4.000000
25.715991 29.140800 4.000000
33.396725 33.018583 4.000000
31.888422 0.394082 4.000000
31.446804 -8.332393 4.000000
31.594761 -1.407376 4.000000
35.010014 2.387823 4.000000
34.865220 9.247099 4.000000
33.762097 2.237300 4.000000
38.342854 7.311274 4.000000
38.463878 12.725599 4.000000
33.551892 14.808814 4.000000
37.429825 12.029018 4.000000
32.200149 10.132355 4.000000
37.340621 14.570127 4.000000
33.201501 13.514551 4.000000
37.802137 18.805796 4.000000
35.629511 16.889039 4.000000
37.351918 15.009297 4.000000
36.569006 17.675897 4.000000
32.102684 21.087450 4.000000
33.225374 23.647236 4.000000
36.596633 21.741602 4.000000
34.948226 24.994674 4.000000
31.188226 26.680363 4.000000
32.237033 31.141726 4.000000
31.447759 37.516586 4.000000
32.336525 27.956747 4.000000
31.934405 -3.463144 4.000000
35.433298 -2.564218 4.000000
34.270191 4.833336 4.000000
33.244807 1.465165 4.000000
34.623827 5.463132 4.000000
41.496595 7.642516 4.000000
29.372046 7.157915 4.000000
35.097167 12.619250 4.000000
33.868538 9.209589 4.000000
39.238078 15.481304 4.000000
35.144944 12.904135 4.000000
37.100260 5.962555 4.000000
36.658817 12.873177 4.000000
36.313742 14.670910 4.000000
36.841815 17.164765 4.000000
38.056157 14.230184 4.000000
34.090094 16.750739 4.000000
34.569527 14.541762 4.000000
30.404457 21.106770 4.000000
34.835207 21.966985 4.000000
36.206266 21.312894 4.000000
28.983980 30.809975 4.000000
36.703583 27.394882 4.000000
33.288071 25.793230 4.000000
31.492852 31.599027 4.000000
30.626861 -7.062614 4.000000
32.965929 -6.499854 4.000000
35.125383 12.318467 4.000000
33.929491 3.953404 4.000000
37.357561 12.255983 4.000000
33.551659 9.097728 4.000000
36.471190 8.863827 4.000000
32.579506 8.735665 4.000000
34.844983 11.606817 4.000000
37.311400 13.243091 4.000000
37.993295 12.753807 4.000000
37.731232 12.318243 4.000000
35.560204 20.623275 4.000000
34.422792 17.989215 4.000000
37.985737 18.037477 4.000000
33.808707 17.270127 4.000000
37.715183 17.589752 4.000000
39.314580 22.151313 4.000000
35.181117 20.930524 4.000000
35.609807 23.235199 4.000000
36.716511 28.535826 4.000000
30.667573 28.294660 4.000000
40.806872 18.977654 4.000000
33.816176 35.416585 4.000000
30.645559 35.625414 4.000000
30.819170 -2.138703 4.000000
31.291801 -5.186698 4.000000
39.510320 0.918366 4.000000
37.988703 6.792896 4.000000
36.219840 4.452820 4.000000
36.737278 8.058613 4.000000
35.437791 6.052820 4.000000
32.233929 6.744719 4.000000
34.613104 12.238256 4.000000
39.480167 12.783390 4.000000
38.405284 8.880458 4.000000
36.894065 11.917919 4.000000
40.120961 18.260900 4.000000
37.609433 15.694723 4.000000
37.626766 22.212569 4.000000
35.807800 18.703958 4.000000
34.255644 18.274221 4.000000
35.714372 19.973384 4.000000
36.973441 19.033365 4.000000
35.677776 23.989204 4.000000
39.642734 21.430798 4.000000
33.719381 20.041238 4.000000
35.249327 36.131003 4.000000
29.641271 33.422095 4.000000
33.883425 34.834568 4.000000
32.967380 -2.241525 4.000000
34.006812 -1.964684 4.000000
31.795531 -4.856746 4.000000
35.429375 0.682454 4.000000
34.215210 4.001115 4.000000
38.933176 4.770375 4.000000
38.459127 5.973509 4.000000
42.962624 8.150552 4.000000
34.782434 11.323190 4.000000
38.966196 11.872725 4.000000
33.547253 11.258859 4.000000
38.821860 16.162746 4.000000
35.563793 15.713274 4.000000
38.371531 16.069019 4.000000
41.454731 14.553279 4.000000
33.095071 21.668762 4.000000
36.646537 16.875872 4.000000
34.166111 18.914361 4.000000
[...]
POINT_DATA 1250
SCALARS m double
LOOKUP_TABLE default
1.000000
1.000000
1.000000
1.000000
1.000000
1.000000
1.000000
1.000000
1.000000
1.000000
1.000000
1.000000
1.000000
1.000000
1.000000
1.000000
1.000000
1.000000
1.000000
1.000000
1.000000
1.000000
1.000000
1.000000
1.000000
1.000000
1.000000
1.000000
1.000000
1.000000
1.000000
1.000000
1.000000
1.000000
1.000000
1.000000
1.000000
1.000000
1.000000
1.000000
1.000000
1.000000
1.000000
1.000000
1.000000
1.000000
1.000000
1.000000
1.000000
1.000000
1.000000
1.000000
1.000000
1.000000
1.000000
1.000000
1.000000
1.000000
1.000000
1.000000
1.000000
1.000000
1.000000
1.000000
1.000000
1.000000
1.000000
1.000000
1.000000
1.000000
1.000000
1.000000
1.000000
1.000000
1.000000
1.000000
1.000000
1.000000
1.000000
1.000000
1.000000
1.000000
1.000000
1.000000
1.000000
1.000000
1.000000
1.000000
1.000000
1.000000
1.000000
1.000000
1.000000
1.000000
1.000000
1.000000
1.000000
1.000000
1.000000
1.000000
1.000000
1.000000
1.000000
1.000000
1.000000
1.000000
1.000000
1.000000
1.000000
1.000000
1.000000
1.000000
1.000000
1.000000
1.000000
1.000000
1.000000
1.000000
1.000000
1.000000
1.000000
1.000000
1.000000
1.000000
1.000000
1.000000
1.000000
1.000000
1.000000
1.000000
1.000000
1.000000
1.000000
1.000000
1.000000
1.000000
1.000000
1.000000
1.000000
1.000000
1.000000
1.000000
1.000000
1.000000
1.000000
1.000000
1.000000
1.000000
1.000000
1.000000
1.000000
1.000000
1.000000
1.000000
1.000000
1.000000
1.000000
1.000000
1.000000
1.000000
1.000000
1.000000
1.000000
1.000000
1.000000
1.000000
1.000000
1.000000
1.000000
1.000000
1.000000
1.000000
1.000000
1.000000
1.000000
1.000000
1.000000
1.000000
1.000000
1.000000
1.000000
1.000000
1.000000
1.000000
1.000000
1.000000
1.000000
1.000000
1.000000
1.000000
1.000000
1.000000
1.000000
1.000000
1.000000
1.000000
1.000000
1.000000
1.000000
1.000000
1.000000
1.000000
1.000000
1.000000
1.000000
1.000000
1.000000
1.000000
1.000000
1.000000
1.000000
1.000000
1.000000
1.000000
1.000000
1.000000
1.000000
1.000000
1.000000
1.000000
1.000000
1.000000
1.000000
1.000000
1.000000
1.000000
1.000000
1.000000
1.000000
1.000000
1.000000
1.000000
1.000000
1.000000
1.000000
1.000000
1.000000
1.000000
1.000000
1.000000
1.000000
1.000000
1.000000
1.000000
1.000000
1.000000
1.000000
1.000000
1.000000
1.000000
1.000000
1.000000
1.000000
1.000000
1.000000
1.000000
1.000000
1.000000
1.000000
1.000000
1.000000
1.000000
1.000000
1.000000
1.000000
1.000000
1.000000
1.000000
1.000000
1.000000
1.000000
1.000000
1.000000
1.000000
1.000000
1.000000
1.000000
1.000000
1.000000
1.000000
1.000000
1.000000
1.000000
1.000000
1.000000
1.000000
1.000000
1.000000
1.000000
1.000000
1.000000
1.000000
1.000000
1.000000
1.000000
1.000000
1.000000
1.000000
1.000000
1.000000
1.000000
1.000000
1.000000
1.000000
1.000000
1.000000
1.000000
1.000000
1.000000
1.000000
1.000000
1.000000
1.000000
1.000000
1.000000
1.000000
1.000000
1.000000
1.000000
1.000000
1.000000
1.000000
1.000000
1.000000
1.000000
1.000000
1.000000
1.000000
1.000000
1.000000
1.000000
1.000000
1.000000
1.000000
1.000000
1.000000
1.000000
1.000000
1.000000
1.000000
1.000000
1.000000
1.000000
1.000000
1.000000
1.000000
1.000000
1.000000
1.000000
1.000000
1.000000
1.000000
1.000000
1.000000
1.000000
1.000000
1.000000
1.000000
1.000000
1.000000
1.000000
1.000000
1.000000
1.000000
1.000000
1.000000
1.000000
1.000000
1.000000
1.000000
1.000000
1.000000
1.000000
1.000000
1.000000
1.000000
1.000000
1.000000
1.000000
1.000000
1.000000
1.000000
1.000000
1.000000
1.000000
1.000000
1.000000
1.000000
1.000000
1.000000
1.000000
1.000000
1.000000
1.000000
1.000000
1.000000
1.000000
1.000000
1.000000
1.000000
1.000000
1.000000
1.000000
1.000000
1.000000
1.000000
1.000000
1.000000
1.000000
1.000000
1.000000
1.000000
1.000000
1.000000
1.000000
1.000000
1.000000
1.000000
1.000000
1.000000
1.000000
1.000000
1.000000
1.000000
1.000000
1.000000
1.000000
1.000000
1.000000
1.000000
1.000000
1.000000
1.000000
1.000000
1.000000
1.000000
1.000000
1.000000
1.000000
1.000000
1.000000
1.000000
1.000000
1.000000
1.000000
1.000000
1.000000
1.000000
1.000000
1.000000
1.000000
1.000000
1.000000
1.000000
1.000000
1.000000
1.000000
1.000000
1.000000
1.000000
1.000000
1.000000
1.000000
1.000000
1.000000
1.000000
1.000000
1.000000
1.000000
1.000000
1.000000
1.000000
1.000000
1.000000
1.000000
1.000000
1.000000
1.000000
1.000000
1.000000
1.000000
1.000000
1.000000
1.000000
1.000000
1.000000
1.000000
1.000000
1.000000
1.000000
1.000000
1.000000
1.000000
1.000000
1.000000
1.000000
1.000000
1.000000
1.000000
1.000000
1.000000
1.000000
1.000000
1.000000
1.000000
1.000000
1.000000
1.000000
1.000000
1.000000
1.000000
1.000000
1.000000
1.000000
1.000000
1.000000
1.000000
1.000000
1.000000
1.000000
1.000000
1.000000
1.000000
1.000000
1.000000
1.000000
1.000000
1.000000
1.000000
1.000000
1.000000
1.000000
1.000000
1.000000
1.000000
1.000000
1.000000
1.000000
1.000000
1.000000
1.000000
1.000000
1.000000
1.000000
1.000000
1.000000
1.000000
1.000000
1.000000
1.000000
1.000000
1.000000
1.000000
1.000000
1.000000
1.000000
1.000000
1.000000
1.000000
1.000000
1.000000
1.000000
1.000000
1.000000
1.000000
1.000000
1.000000
1.000000
1.000000
1.000000
1.000000
1.000000
1.000000
1.000000
1.000000
1.000000
1.000000
1.000000
1.000000
1.000000
1.000000
1.000000
1.000000
1.000000
1.000000
1.000000
1.000000
1.000000
1.000000
1.000000
1.000000
1.000000
1.000000
1.000000
1.000000
1.000000
1.000000
1.000000
1.000000
1.000000
1.000000
1.000000
1.000000
1.000000
1.000000
1.000000
1.000000
1.000000
1.000000
1.000000
1.000000
1.000000
1.000000
1.000000
1.000000
1.000000
1.000000
1.000000
1.000000
1.000000
1.000000
1.000000
1.000000
1.000000
1.000000
1.000000
1.000000
1.000000
1.000000
1.000000
1.000000
1.000000
1.000000
1.000000
1.000000
1.000000
1.000000
1.000000
1.000000
1.000000
1.000000
1.000000
1.000000
1.000000
1.000000
1.000000
1.000000
1.000000
1.000000
1.000000
1.000000
1.000000
1.000000
1.000000
1.000000
1.000000
1.000000
1.000000
1.000000
1.000000
1.000000
1.000000
1.000000
1.000000
1.000000
1.000000
1.000000
1.000000
1.000000
1.000000
1.000000
1.000000
1.000000
1.000000
1.000000
1.000000
1.000000
1.000000
1.000000
1.000000
1.000000
1.000000
1.000000
1.000000
1.000000
1.000000
1.000000
1.000000
1.000000
1.000000
1.000000
1.000000
1.000000
1.000000
1.000000
1.000000
1.000000
1.000000
1.000000
1.000000
1.000000
1.000000
1.000000
1.000000
1.000000
1.000000
1.000000
1.000000
1.000000
1.000000
1.000000
1.000000
1.000000
1.000000
1.000000
1.000000
1.000000
1.000000
1.000000
1.000000
1.000000
1.000000
1.000000
1.000000
1.000000
1.000000
1.000000
1.000000
1.000000
1.000000
1.000000
1.000000
1.000000
1.000000
1.000000
1.000000
1.000000
1.000000
1.000000
1.000000
1.000000
1.000000
1.000000
1.000000
1.000000
1.000000
1.000000
1.000000
1.000000
1.000000
1.000000
1.000000
1.000000
1.000000
1.000000
1.000000
1.000000
1.000000
1.000000
1.000000
1.000000
1.000000
1.000000
1.000000
1.000000
1.000000
1.000000
1.000000
1.000000
1.000000
1.000000
1.000000
1.000000
1.000000
1.000000
1.000000
1.000000
1.000000
1.000000
1.000000
1.000000
1.000000
1.000000
1.000000
1.000000
1.000000
1.000000
1.000000
1.000000
1.000000
1.000000
1.000000
1.000000
1.000000
1.000000
1.000000
1.000000
1.000000
1.000000
1.000000
1.000000
1.000000
1.000000
1.000000
1.000000
1.000000
1.000000
1.000000
1.000000
1.000000
1.000000
1.000000
1.000000
1.000000
1.000000
1.000000
1.000000
1.000000
1.000000
1.000000
1.000000
1.000000
1.000000
1.000000
1.000000
1.000000
1.000000
1.000000
1.000000
1.000000
1.000000
1.000000
1.000000
1.000000
1.000000
1.000000
1.000000
1.000000
1.000000
1.000000
1.000000
1.000000
1.000000
1.000000
1.000000
1.000000
1.000000
1.000000
1.000000
1.000000
1.000000
1.000000
1.000000
1.000000
1.000000
1.000000
1.000000
1.000000
1.000000
1.000000
1.000000
1.000000
1.000000
1.000000
1.000000
1.000000
1.000000
1.000000
1.000000
1.000000
1.000000
1.000000
1.000000
1.000000
1.000000
1.000000
1.000000
1.000000
1.000000
1.000000
1.000000
1.000000
1.000000
1.000000
1.000000
1.000000
1.000000
1.000000
1.000000
1.000000
1.000000
1.000000
1.000000
1.000000
1.000000
1.000000
1.000000
1.000000
1.000000
1.000000
1.000000
1.000000
1.000000
1.000000
1.000000
1.000000
1.000000
1.000000
1.000000
1.000000
1.000000
1.000000
1.000000
1.000000
1.000000
1.000000
1.000000
1.000000
1.000000
1.000000
1.000000
1.000000
1.000000
1.000000
1.000000
1.000000
1.000000
1.000000
1.000000
1.000000
1.000000
1.000000
1.000000
1.000000
1.000000
1.000000
1.000000
1.000000
1.000000
1.000000
1.000000
1.000000
1.000000
1.000000
1.000000
1.000000
1.000000
1.000000
1.000000
1.000000
1.000000
1.000000
1.000000
1.000000
1.000000
1.000000
1.000000
1.000000
1.000000
1.000000
1.000000
1.000000
1.000000
1.000000
1.000000
1.000000
1.000000
1.000000
1.000000
1.000000
1.000000
1.000000
1.000000
1.000000
1.000000
1.000000
1.000000
1.000000
1.000000
1.000000
1.000000
1.000000
1.000000
1.000000
1.000000
1.000000
1.000000
1.000000
1.000000
1.000000
1.000000
1.000000
1.000000
1.000000
1.000000
1.000000
1.000000
1.000000
1.000000
1.000000
1.000000
1.000000
1.000000
1.000000
1.000000
1.000000
1.000000
1.000000
1.000000
1.000000
1.000000
1.000000
1.000000
1.000000
1.000000
1.000000
1.000000
1.000000
1.000000
1.000000
1.000000
1.000000
1.000000
1.000000
1.000000
1.000000
1.000000
1.000000
1.000000
1.000000
1.000000
1.000000
1.000000
1.000000
1.000000
1.000000
1.000000
1.000000
1.000000
1.000000
1.000000
1.000000
1.000000
1.000000
1.000000
1.000000
1.000000
1.000000
1.000000
1.000000
1.000000
1.000000
1.000000
1.000000
1.000000
1.000000
1.000000
1.000000
1.000000
1.000000
1.000000
1.000000
1.000000
1.000000
1.000000
1.000000
1.000000
1.000000
1.000000
1.000000
1.000000
1.000000
1.000000
1.000000
1.000000
1.000000
1.000000
1.000000
1.000000
1.000000
1.000000
1.000000
1.000000
1.000000
1.000000
1.000000
1.000000
1.000000
1.000000
1.000000
1.000000
1.000000
1.000000
1.000000
1.000000
1.000000
1.000000
1.000000
1.000000
1.000000
1.000000
1.000000
1.000000
1.000000
1.000000
1.000000
1.000000
1.000000
1.000000
1.000000
1.000000
1.000000
1.000000
1.000000
1.000000
1.000000
1.000000
1.000000
1.000000
1.000000
1.000000
1.000000
1.000000
1.000000
1.000000
1.000000
1.000000
1.000000
1.000000
1.000000
1.000000
1.000000
1.000000
1.000000
1.000000
1.000000
1.000000
1.000000
1.000000
1.000000
1.000000
1.000000
1.000000
1.000000
1.000000
1.000000
1.000000
1.000000
1.000000
1.000000
1.000000
1.000000
1.000000
1.000000
1.000000
1.000000
1.000000
1.000000
1.000000
1.000000
1.000000
1.000000
1.000000
1.000000
1.000000
1.000000
1.000000
1.000000
1.000000
1.000000
1.000000
1.000000
1.000000
1.000000
1.000000
1.000000
1.000000
1.000000
1.000000
1.000000
1.000000
1.000000
1.000000
1.000000
1.000000
1.000000
1.000000
1.000000
1.000000
1.000000
1.000000
1.000000
1.000000
1.000000
1.000000
1.000000
1.000000
1.000000
1.000000
1.000000
1.000000
1.000000
1.000000
1.000000
1.000000
1.000000
1.000000
1.000000
1.000000
1.000000
1.000000
1.000000
1.000000
1.000000
1.000000
1.000000
1.000000
1.000000
1.000000
1.000000
1.000000
1.000000
1.000000
1.000000
1.000000
1.000000
1.000000
1.000000
1.000000
1.000000
1.000000
1.000000
1.000000
1.000000
1.000000
1.000000
1.000000
1.000000
1.000000
1.000000
1.000000
1.000000
1.000000
1.000000
1.000000
1.000000
1.000000
1.000000
1.000000
1.000000
VECTORS v double
-8.366247 -13.646813 0.000000
2.701263 -4.066431 0.000000
0.128655 -1.128060 0.000000
2.196923 -2.760161 0.000000
-6.323769 0.815308 0.000000
11.137030 -16.772296 0.000000
-14.072181 1.901875 0.000000
4.785474 -8.002030 0.000000
12.325791 -1.725028 0.000000
7.080119 -11.954612 0.000000
2.040257 -13.922923 0.000000
1.429881 0.891910 0.000000
6.894876 -7.370722 0.000000
-7.683627 5.078256 0.000000
-4.080180 0.473655 0.000000
-4.651043 -7.650574 0.000000
-16.904785 -1.217512 0.000000
8.912219 1.518671 0.000000
-2.176990 1.725488 0.000000
-0.668758 -6.119801 0.000000
13.927666 0.713154 0.000000
7.155598 12.218014 0.000000
5.826732 3.018703 0.000000
-2.629570 18.707323 0.000000
-1.447647 7.900812 0.000000
2.630965 -13.726701 0.000000
-7.126417 2.908105 0.000000
5.360649 -9.594432 0.000000
0.338866 -7.203588 0.000000
-5.928297 18.515698 0.000000
2.081337 -6.750769 0.000000
4.301166 0.012405 0.000000
-4.557859 -9.100146 0.000000
5.276769 -6.083338 0.000000
-4.854395 2.540223 0.000000
4.578382 3.383305 0.000000
-0.508546 16.777597 0.000000
7.595548 8.015776 0.000000
8.758544 -4.506654 0.000000
9.627273 -4.137548 0.000000
-1.049580 2.566298 0.000000
17.406197 13.150119 0.000000
8.438334 -5.756227 0.000000
1.916488 -0.650815 0.000000
1.307764 0.133649 0.000000
-4.091331 6.969127 0.000000
7.990567 11.385050 0.000000
5.340399 9.512174 0.000000
-0.299115 7.858752 0.000000
2.630965 13.726701 0.000000
-0.082519 -9.568022 0.000000
-10.819692 3.924545 0.000000
-6.971409 -5.972645 0.000000
-2.425044 3.578751 0.000000
-10.923952 -11.934392 0.000000
-12.371088 -5.196580 0.000000
-3.988244 -5.185765 0.000000
-9.090374 3.636844 0.000000
7.961211 -0.935766 0.000000
3.538994 -11.277920 0.000000
-1.436975 18.739122 0.000000
-15.063388 0.221499 0.000000
5.362983 12.268361 0.000000
8.592495 -2.967310 0.000000
-5.252908 -7.038071 0.000000
-7.187470 -7.596504 0.000000
0.245044 2.741055 0.000000
5.596560 0.591588 0.000000
-7.742945 -0.040186 0.000000
3.922525 -8.160959 0.000000
-5.787401 -3.257027 0.000000
-15.655931 4.843079 0.000000
6.920825 7.498338 0.000000
-3.834814 10.064990 0.000000
-0.277949 9.467097 0.000000
3.155030 -10.534709 0.000000
6.835050 -10.617898 0.000000
-0.763271 -1.412225 0.000000
3.821077 -3.398418 0.000000
-4.329568 -7.966603 0.000000
4.553748 -2.061146 0.000000
-1.034630 3.048223 0.000000
-4.490152 0.906725 0.000000
-2.425491 -11.826956 0.000000
-4.812483 -13.698468 0.000000
-5.299017 -6.631860 0.000000
3.281639 10.517432 0.000000
10.044455 -3.414381 0.000000
7.372961 -7.307661 0.000000
-9.226644 -16.280441 0.000000
1.945209 1.757178 0.000000
3.685259 4.423743 0.000000
-0.851612 -10.803380 0.000000
-5.348970 -2.381932 0.000000
-7.226165 -7.826745 0.000000
-1.053567 3.208179 0.000000
4.084419 7.420634 0.000000
4.960748 -8.164302 0.000000
6.835055 10.617898 0.000000
8.736299 6.220287 0.000000
-4.769467 -2.552149 0.000000
6.006926 -7.503766 0.000000
-5.169166 -11.751233 0.000000
0.505172 -15.195457 0.000000
9.794981 -3.695361 0.000000
-0.604477 5.120096 0.000000
4.401459 -3.310898 0.000000
12.597687 5.549668 0.000000
11.794436 -8.847737 0.000000
7.899330 -13.678187 0.000000
7.362877 4.131436 0.000000
-11.278594 -4.344020 0.000000
-3.915334 5.331575 0.000000
-3.210015 -0.626576 0.000000
1.283759 12.063655 0.000000
9.914204 -3.152353 0.000000
-2.864194 5.061458 0.000000
-5.019227 15.821013 0.000000
-1.802778 -4.643700 0.000000
0.357269 0.477301 0.000000
5.555872 1.580036 0.000000
0.779456 6.129865 0.000000
-1.103078 17.995118 0.000000
6.102934 -3.345202 0.000000
6.164284 6.361560 0.000000
1.315521 -6.434053 0.000000
-0.238537 -17.692019 0.000000
-7.313406 0.058351 0.000000
0.684314 -13.624893 0.000000
-5.883631 6.013981 0.000000
4.132418 -2.341605 0.000000
-10.005097 -5.024347 0.000000
1.673894 -19.313147 0.000000
-10.032207 1.995737 0.000000
7.710005 -0.377484 0.000000
5.558375 -3.133681 0.000000
-4.118926 2.737803 0.000000
0.148840 -7.813540 0.000000
6.165153 -1.232710 0.000000
-6.837446 3.036757 0.000000
4.113926 -10.074658 0.000000
-2.202644 8.306517 0.000000
-2.948122 -1.560365 0.000000
-1.251388 -4.710231 0.000000
-3.899030 7.897680 0.000000
7.289897 -11.265796 0.000000
4.865176 18.039951 0.000000
10.602283 -8.998246 0.000000
-1.995419 10.927773 0.000000
0.969372 6.411758 0.000000
-2.550401 -6.972547 0.000000
-0.315288 -18.159992 0.000000
3.169020 -10.666917 0.000000
2.512073 5.308430 0.000000
0.205110 -4.049673 0.000000
13.540229 -4.819005 0.000000
-1.659602 3.987273 0.000000
3.181033 10.722119 0.000000
11.511798 -4.984126 0.000000
5.279329 -15.791926 0.000000
-8.427988 2.987339 0.000000
-6.196794 -2.596091 0.000000
-8.502657 -0.546503 0.000000
-11.924315 0.814001 0.000000
6.659359 6.256427 0.000000
9.334751 -4.289308 0.000000
2.269573 4.277441 0.000000
-3.801367 -6.196727 0.000000
-8.388678 6.053102 0.000000
3.547040 8.153859 0.000000
2.734417 15.423568 0.000000
4.204885 7.350894 0.000000
-2.272997 4.373572 0.000000
-7.461006 11.725614 0.000000
2.650222 7.002411 0.000000
4.837053 -9.997753 0.000000
-5.784393 -12.840028 0.000000
-5.737082 -6.817057 0.000000
-3.180194 -6.679992 0.000000
4.121016 1.521405 0.000000
7.071772 -8.015509 0.000000
4.929600 -2.403466 0.000000
-8.588318 4.352555 0.000000
-2.767330 -5.375275 0.000000
-3.776611 -0.212905 0.000000
-1.710569 -6.261388 0.000000
-3.968353 1.895135 0.000000
-9.425891 0.875277 0.000000
-8.515529 8.546718 0.000000
0.529844 -1.030638 0.000000
3.631855 -11.419667 0.000000
7.555330 -6.671619 0.000000
3.033645 -1.499983 0.000000
1.716828 11.576362 0.000000
-8.366354 3.802105 0.000000
0.780593 -11.489749 0.000000
9.657235 3.657928 0.000000
-1.128859 5.757411 0.000000
-7.735839 -3.900875 0.000000
4.837053 9.997753 0.000000
-3.063890 -4.334588 0.000000
11.868626 -4.529710 0.000000
6.657927 -14.910152 0.000000
2.492614 -1.754086 0.000000
5.152579 9.355789 0.000000
2.735393 -1.757949 0.000000
6.090568 11.039787 0.000000
-6.095849 -0.918591 0.000000
-1.964965 -12.210622 0.000000
-7.513784 -9.193328 0.000000
-2.067693 -11.768978 0.000000
-1.328963 -1.233808 0.000000
2.870372 -2.464086 0.000000
8.633218 6.931581 0.000000
-2.249325 9.877788 0.000000
-1.410232 -10.374996 0.000000
2.870146 0.875685 0.000000
-4.714864 12.549390 0.000000
-2.209713 -4.789269 0.000000
-1.367124 4.802140 0.000000
3.857346 -2.699388 0.000000
-10.180320 6.827589 0.000000
0.924386 7.847882 0.000000
-14.080732 0.192781 0.000000
0.750194 7.928790 0.000000
-5.714435 -0.335945 0.000000
-3.935696 -8.249396 0.000000
-3.398346 -4.901094 0.000000
5.152577 -6.379161 0.000000
-2.479832 -6.722167 0.000000
4.054926 -1.918853 0.000000
4.488715 4.514434 0.000000
0.662717 6.437010 0.000000
-11.305779 9.452507 0.000000
-1.796409 3.382189 0.000000
-6.036764 -4.330021 0.000000
-0.034783 -9.933729 0.000000
-7.433112 -4.262558 0.000000
3.217815 -8.884072 0.000000
-0.640584 10.408656 0.000000
12.915719 3.410161 0.000000
2.725449 9.574313 0.000000
-9.318945 -4.701542 0.000000
-10.850577 4.066685 0.000000
-0.464299 -2.024397 0.000000
-2.924711 -1.257112 0.000000
-10.855849 2.672737 0.000000
-2.376703 10.359479 0.000000
-3.932743 8.250269 0.000000
-1.092877 -2.199751 0.000000
1.907938 0.364999 0.000000
5.490902 -5.648985 0.000000
-9.608737 4.395780 0.000000
-2.471602 -8.525603 0.000000
-6.017920 -11.530405 0.000000
10.467437 -5.882568 0.000000
-9.737445 7.167446 0.000000
-5.903035 4.257308 0.000000
-9.589516 -7.315427 0.000000
-4.581011 19.176745 0.000000
8.674448 1.824972 0.000000
9.112734 -17.237796 0.000000
2.571423 1.611413 0.000000
3.691053 -1.990057 0.000000
0.245783 -2.563937 0.000000
0.603642 -2.308158 0.000000
-8.524831 -8.504448 0.000000
-5.086069 1.738033 0.000000
-4.027857 0.697955 0.000000
-8.093329 18.282311 0.000000
-8.501161 -5.367463 0.000000
-5.947501 9.186991 0.000000
-3.962597 9.993273 0.000000
3.224875 10.121263 0.000000
7.617942 8.503853 0.000000
-4.016567 -15.948821 0.000000
-5.288068 -10.632516 0.000000
-6.661946 10.300521 0.000000
-1.393573 6.583443 0.000000
12.014304 3.826424 0.000000
-14.165880 7.196836 0.000000
0.646495 -4.004187 0.000000
-8.155418 3.382441 0.000000
-8.998016 -3.553409 0.000000
5.760760 -11.266257 0.000000
1.239954 -4.325669 0.000000
-1.710248 -5.203265 0.000000
-6.649369 11.466146 0.000000
5.291242 3.891612 0.000000
2.174952 13.086652 0.000000
2.088008 10.608966 0.000000
-5.897654 24.184999 0.000000
3.445327 6.659056 0.000000
-13.434931 -0.590303 0.000000
-1.507092 -3.823261 0.000000
-2.926865 6.190484 0.000000
-4.562183 4.057572 0.000000
-2.960715 2.897781 0.000000
2.152322 11.782580 0.000000
-2.362118 11.214955 0.000000
-7.196876 -7.944007 0.000000
8.599507 -7.980230 0.000000
-11.667877 -6.107186 0.000000
-7.093531 -6.143283 0.000000
-10.288799 -3.392704 0.000000